Sconfig 0.00000 tap: on snoop: rts? on errs? on
Sconfig 0.00000 salvage: on !bd replies? on
Sconfig 0.00000 grat error: on grat reply: on
Sconfig 0.00000 $reply for props: on ring 0 search: on
Sconfig 0.00000 using MOBICACHE
M 5.00000 0 (407.00, 361.00, 0.00), (17.00, 285.00), 12.00
M 5.00000 1 (1.00, 371.00, 0.00), (95.00, 17.00), 12.00
M 5.00000 2 (420.00, 379.00, 0.00), (474.00, 467.00), 12.00
M 5.00000 3 (491.00, 168.00, 0.00), (257.00, 240.00), 12.00
M 5.00000 4 (16.00, 282.00, 0.00), (207.00, 417.00), 12.00
M 5.00000 5 (5.00, 320.00, 0.00), (207.00, 283.00), 12.00
M 5.00000 6 (168.00, 368.00, 0.00), (285.00, 359.00), 12.00
M 5.00000 7 (257.00, 125.00, 0.00), (479.00, 272.00), 12.00
M 5.00000 8 (127.00, 463.00, 0.00), (332.00, 436.00), 12.00
M 5.00000 9 (454.00, 401.00, 0.00), (449.00, 160.00), 12.00
M 5.00000 10 (399.00, 230.00, 0.00), (237.00, 449.00), 12.00
M 5.00000 11 (336.00, 117.00, 0.00), (59.00, 449.00), 12.00
M 5.00000 12 (384.00, 99.00, 0.00), (362.00, 356.00), 12.00
M 5.00000 13 (12.00, 19.00, 0.00), (366.00, 407.00), 12.00
M 5.00000 14 (125.00, 331.00, 0.00), (126.00, 443.00), 12.00
M 5.00000 15 (91.00, 316.00, 0.00), (321.00, 67.00), 12.00
M 5.00000 16 (52.00, 262.00, 0.00), (458.00, 409.00), 12.00
M 5.00000 17 (239.00, 401.00, 0.00), (356.00, 435.00), 12.00
M 5.00000 18 (134.00, 70.00, 0.00), (168.00, 478.00), 12.00
M 5.00000 19 (423.00, 290.00, 0.00), (371.00, 215.00), 12.00
M 5.00000 20 (295.00, 257.00, 0.00), (418.00, 130.00), 12.00
M 5.00000 21 (229.00, 223.00, 0.00), (298.00, 370.00), 12.00
M 5.00000 22 (416.00, 13.00, 0.00), (464.00, 392.00), 12.00
M 5.00000 23 (134.00, 354.00, 0.00), (329.00, 267.00), 12.00
M 5.00000 24 (225.00, 286.00, 0.00), (425.00, 361.00), 12.00
M 5.00000 25 (180.00, 484.00, 0.00), (239.00, 323.00), 12.00
M 5.00000 26 (229.00, 453.00, 0.00), (98.00, 79.00), 12.00
M 5.00000 27 (339.00, 424.00, 0.00), (390.00, 221.00), 12.00
M 5.00000 28 (15.00, 307.00, 0.00), (381.00, 173.00), 12.00
M 5.00000 29 (452.00, 422.00, 0.00), (188.00, 305.00), 12.00
M 5.00000 30 (451.00, 459.00, 0.00), (211.00, 19.00), 12.00
M 5.00000 31 (80.00, 498.00, 0.00), (268.00, 195.00), 12.00
s 5.000000000 _7_ AGT  --- 0 cbr 512 [0 0 0 0] ------- [7:0 15:0 32 0] [0] 0 0
r 5.000000000 _7_ RTR  --- 0 cbr 512 [0 0 0 0] ------- [7:0 15:0 32 0] [0] 0 0
s 5.000000000 _25_ AGT  --- 2 cbr 512 [0 0 0 0] ------- [25:0 31:0 32 0] [0] 0 0
r 5.000000000 _25_ RTR  --- 2 cbr 512 [0 0 0 0] ------- [25:0 31:0 32 0] [0] 0 0
s 5.000000000 _5_ AGT  --- 4 cbr 512 [0 0 0 0] ------- [5:0 16:0 32 0] [0] 0 0
r 5.000000000 _5_ RTR  --- 4 cbr 512 [0 0 0 0] ------- [5:0 16:0 32 0] [0] 0 0
s 5.000000000 _6_ AGT  --- 6 cbr 512 [0 0 0 0] ------- [6:0 8:0 32 0] [0] 0 0
r 5.000000000 _6_ RTR  --- 6 cbr 512 [0 0 0 0] ------- [6:0 8:0 32 0] [0] 0 0
s 5.000000000 _4_ AGT  --- 8 cbr 512 [0 0 0 0] ------- [4:0 21:0 32 0] [0] 0 0
r 5.000000000 _4_ RTR  --- 8 cbr 512 [0 0 0 0] ------- [4:0 21:0 32 0] [0] 0 0
s 5.000000000 _17_ AGT  --- 10 cbr 512 [0 0 0 0] ------- [17:0 2:0 32 0] [0] 0 0
r 5.000000000 _17_ RTR  --- 10 cbr 512 [0 0 0 0] ------- [17:0 2:0 32 0] [0] 0 0
s 5.000000000 _18_ AGT  --- 12 cbr 512 [0 0 0 0] ------- [18:0 20:0 32 0] [0] 0 0
r 5.000000000 _18_ RTR  --- 12 cbr 512 [0 0 0 0] ------- [18:0 20:0 32 0] [0] 0 0
s 5.000000000 _9_ AGT  --- 14 cbr 512 [0 0 0 0] ------- [9:0 11:0 32 0] [0] 0 0
r 5.000000000 _9_ RTR  --- 14 cbr 512 [0 0 0 0] ------- [9:0 11:0 32 0] [0] 0 0
s 5.000000000 _22_ AGT  --- 16 cbr 512 [0 0 0 0] ------- [22:0 19:0 32 0] [0] 0 0
r 5.000000000 _22_ RTR  --- 16 cbr 512 [0 0 0 0] ------- [22:0 19:0 32 0] [0] 0 0
s 5.000000000 _3_ AGT  --- 18 cbr 512 [0 0 0 0] ------- [3:0 30:0 32 0] [0] 0 0
r 5.000000000 _3_ RTR  --- 18 cbr 512 [0 0 0 0] ------- [3:0 30:0 32 0] [0] 0 0
s 5.000000000 _0_ AGT  --- 20 cbr 512 [0 0 0 0] ------- [0:0 24:0 32 0] [0] 0 0
r 5.000000000 _0_ RTR  --- 20 cbr 512 [0 0 0 0] ------- [0:0 24:0 32 0] [0] 0 0
s 5.000000000 _23_ AGT  --- 22 cbr 512 [0 0 0 0] ------- [23:0 28:0 32 0] [0] 0 0
r 5.000000000 _23_ RTR  --- 22 cbr 512 [0 0 0 0] ------- [23:0 28:0 32 0] [0] 0 0
s 5.000000000 _26_ AGT  --- 24 cbr 512 [0 0 0 0] ------- [26:0 10:0 32 0] [0] 0 0
r 5.000000000 _26_ RTR  --- 24 cbr 512 [0 0 0 0] ------- [26:0 10:0 32 0] [0] 0 0
s 5.000000000 _14_ AGT  --- 26 cbr 512 [0 0 0 0] ------- [14:0 12:0 32 0] [0] 0 0
r 5.000000000 _14_ RTR  --- 26 cbr 512 [0 0 0 0] ------- [14:0 12:0 32 0] [0] 0 0
s 5.000000000 _29_ AGT  --- 28 cbr 512 [0 0 0 0] ------- [29:0 1:0 32 0] [0] 0 0
r 5.000000000 _29_ RTR  --- 28 cbr 512 [0 0 0 0] ------- [29:0 1:0 32 0] [0] 0 0
s 5.000000000 _13_ AGT  --- 30 cbr 512 [0 0 0 0] ------- [13:0 27:0 32 0] [0] 0 0
r 5.000000000 _13_ RTR  --- 30 cbr 512 [0 0 0 0] ------- [13:0 27:0 32 0] [0] 0 0
s 5.000091526 _0_ RTR  --- 21 DSR 32 [0 0 0 0] ------- [0:255 24:255 32 0] 1 [1 1] [0 1 0 0->0] [0 0 0 0->0]
s 5.000600629 _7_ RTR  --- 1 DSR 32 [0 0 0 0] ------- [7:255 15:255 32 0] 1 [1 1] [0 1 0 0->0] [0 0 0 0->0]
s 5.000882653 _23_ RTR  --- 23 DSR 32 [0 0 0 0] ------- [23:255 28:255 32 0] 1 [1 1] [0 1 0 0->0] [0 0 0 0->0]
r 5.000991600 _2_ RTR  --- 21 DSR 32 [0 ffffffff 0 800] ------- [0:255 24:255 32 0] 1 [1 1] [0 1 0 0->0] [0 0 0 0->0]
r 5.000991732 _9_ RTR  --- 21 DSR 32 [0 ffffffff 0 800] ------- [0:255 24:255 32 0] 1 [1 1] [0 1 0 0->0] [0 0 0 0->0]
r 5.000991769 _19_ RTR  --- 21 DSR 32 [0 ffffffff 0 800] ------- [0:255 24:255 32 0] 1 [1 1] [0 1 0 0->0] [0 0 0 0->0]
r 5.000991779 _29_ RTR  --- 21 DSR 32 [0 ffffffff 0 800] ------- [0:255 24:255 32 0] 1 [1 1] [0 1 0 0->0] [0 0 0 0->0]
r 5.000991835 _27_ RTR  --- 21 DSR 32 [0 ffffffff 0 800] ------- [0:255 24:255 32 0] 1 [1 1] [0 1 0 0->0] [0 0 0 0->0]
r 5.000991884 _30_ RTR  --- 21 DSR 32 [0 ffffffff 0 800] ------- [0:255 24:255 32 0] 1 [1 1] [0 1 0 0->0] [0 0 0 0->0]
r 5.000991964 _10_ RTR  --- 21 DSR 32 [0 ffffffff 0 800] ------- [0:255 24:255 32 0] 1 [1 1] [0 1 0 0->0] [0 0 0 0->0]
r 5.000992036 _20_ RTR  --- 21 DSR 32 [0 ffffffff 0 800] ------- [0:255 24:255 32 0] 1 [1 1] [0 1 0 0->0] [0 0 0 0->0]
r 5.000992102 _17_ RTR  --- 21 DSR 32 [0 ffffffff 0 800] ------- [0:255 24:255 32 0] 1 [1 1] [0 1 0 0->0] [0 0 0 0->0]
r 5.000992183 _24_ RTR  --- 21 DSR 32 [0 ffffffff 0 800] ------- [0:255 24:255 32 0] 1 [1 1] [0 1 0 0->0] [0 0 0 0->0]
r 5.000992194 _26_ RTR  --- 21 DSR 32 [0 ffffffff 0 800] ------- [0:255 24:255 32 0] 1 [1 1] [0 1 0 0->0] [0 0 0 0->0]
r 5.000992228 _3_ RTR  --- 21 DSR 32 [0 ffffffff 0 800] ------- [0:255 24:255 32 0] 1 [1 1] [0 1 0 0->0] [0 0 0 0->0]
r 5.000992277 _21_ RTR  --- 21 DSR 32 [0 ffffffff 0 800] ------- [0:255 24:255 32 0] 1 [1 1] [0 1 0 0->0] [0 0 0 0->0]
r 5.000992323 _6_ RTR  --- 21 DSR 32 [0 ffffffff 0 800] ------- [0:255 24:255 32 0] 1 [1 1] [0 1 0 0->0] [0 0 0 0->0]
s 5.001213058 _5_ RTR  --- 5 DSR 32 [0 0 0 0] ------- [5:255 16:255 32 0] 1 [1 1] [0 1 0 0->0] [0 0 0 0->0]
r 5.002146928 _28_ RTR  --- 5 DSR 32 [0 ffffffff 5 800] ------- [5:255 16:255 32 0] 1 [1 1] [0 1 0 0->0] [0 0 0 0->0]
r 5.002147005 _4_ RTR  --- 5 DSR 32 [0 ffffffff 5 800] ------- [5:255 16:255 32 0] 1 [1 1] [0 1 0 0->0] [0 0 0 0->0]
r 5.002147044 _1_ RTR  --- 5 DSR 32 [0 ffffffff 5 800] ------- [5:255 16:255 32 0] 1 [1 1] [0 1 0 0->0] [0 0 0 0->0]
r 5.002147122 _16_ RTR  --- 5 DSR 32 [0 ffffffff 5 800] ------- [5:255 16:255 32 0] 1 [1 1] [0 1 0 0->0] [0 0 0 0->0]
r 5.002147160 _15_ RTR  --- 5 DSR 32 [0 ffffffff 5 800] ------- [5:255 16:255 32 0] 1 [1 1] [0 1 0 0->0] [0 0 0 0->0]
r 5.002147275 _14_ RTR  --- 5 DSR 32 [0 ffffffff 5 800] ------- [5:255 16:255 32 0] 1 [1 1] [0 1 0 0->0] [0 0 0 0->0]
r 5.002147318 _23_ RTR  --- 5 DSR 32 [0 ffffffff 5 800] ------- [5:255 16:255 32 0] 1 [1 1] [0 1 0 0->0] [0 0 0 0->0]
r 5.002147440 _6_ RTR  --- 5 DSR 32 [0 ffffffff 5 800] ------- [5:255 16:255 32 0] 1 [1 1] [0 1 0 0->0] [0 0 0 0->0]
r 5.002147500 _8_ RTR  --- 5 DSR 32 [0 ffffffff 5 800] ------- [5:255 16:255 32 0] 1 [1 1] [0 1 0 0->0] [0 0 0 0->0]
r 5.002147517 _31_ RTR  --- 5 DSR 32 [0 ffffffff 5 800] ------- [5:255 16:255 32 0] 1 [1 1] [0 1 0 0->0] [0 0 0 0->0]
r 5.002147615 _24_ RTR  --- 5 DSR 32 [0 ffffffff 5 800] ------- [5:255 16:255 32 0] 1 [1 1] [0 1 0 0->0] [0 0 0 0->0]
r 5.002147673 _25_ RTR  --- 5 DSR 32 [0 ffffffff 5 800] ------- [5:255 16:255 32 0] 1 [1 1] [0 1 0 0->0] [0 0 0 0->0]
r 5.002147687 _21_ RTR  --- 5 DSR 32 [0 ffffffff 5 800] ------- [5:255 16:255 32 0] 1 [1 1] [0 1 0 0->0] [0 0 0 0->0]
r 5.002147699 _17_ RTR  --- 5 DSR 32 [0 ffffffff 5 800] ------- [5:255 16:255 32 0] 1 [1 1] [0 1 0 0->0] [0 0 0 0->0]
s 5.002828981 _9_ RTR  --- 15 DSR 32 [0 0 0 0] ------- [9:255 11:255 32 0] 1 [1 1] [0 1 0 0->0] [0 0 0 0->0]
s 5.002879745 _26_ RTR  --- 25 DSR 32 [0 0 0 0] ------- [26:255 10:255 32 0] 1 [1 1] [0 1 0 0->0] [0 0 0 0->0]
s 5.003175462 _6_ RTR  --- 7 DSR 32 [0 0 0 0] ------- [6:255 8:255 32 0] 1 [1 1] [0 1 0 0->0] [0 0 0 0->0]
s 5.003280110 _29_ RTR  --- 29 DSR 32 [0 0 0 0] ------- [29:255 1:255 32 0] 1 [1 1] [0 1 0 0->0] [0 0 0 0->0]
r 5.003477400 _14_ RTR  --- 23 DSR 32 [0 ffffffff 17 800] ------- [23:255 28:255 32 0] 1 [1 1] [0 1 0 0->0] [0 0 0 0->0]
r 5.003477441 _6_ RTR  --- 23 DSR 32 [0 ffffffff 17 800] ------- [23:255 28:255 32 0] 1 [1 1] [0 1 0 0->0] [0 0 0 0->0]
r 5.003477509 _15_ RTR  --- 23 DSR 32 [0 ffffffff 17 800] ------- [23:255 28:255 32 0] 1 [1 1] [0 1 0 0->0] [0 0 0 0->0]
r 5.003477682 _8_ RTR  --- 23 DSR 32 [0 ffffffff 17 800] ------- [23:255 28:255 32 0] 1 [1 1] [0 1 0 0->0] [0 0 0 0->0]
r 5.003477697 _24_ RTR  --- 23 DSR 32 [0 ffffffff 17 800] ------- [23:255 28:255 32 0] 1 [1 1] [0 1 0 0->0] [0 0 0 0->0]
r 5.003477702 _17_ RTR  --- 23 DSR 32 [0 ffffffff 17 800] ------- [23:255 28:255 32 0] 1 [1 1] [0 1 0 0->0] [0 0 0 0->0]
r 5.003477729 _16_ RTR  --- 23 DSR 32 [0 ffffffff 17 800] ------- [23:255 28:255 32 0] 1 [1 1] [0 1 0 0->0] [0 0 0 0->0]
r 5.003477744 _28_ RTR  --- 23 DSR 32 [0 ffffffff 17 800] ------- [23:255 28:255 32 0] 1 [1 1] [0 1 0 0->0] [0 0 0 0->0]
r 5.003477763 _5_ RTR  --- 23 DSR 32 [0 ffffffff 17 800] ------- [23:255 28:255 32 0] 1 [1 1] [0 1 0 0->0] [0 0 0 0->0]
r 5.003477765 _1_ RTR  --- 23 DSR 32 [0 ffffffff 17 800] ------- [23:255 28:255 32 0] 1 [1 1] [0 1 0 0->0] [0 0 0 0->0]
r 5.003477775 _26_ RTR  --- 23 DSR 32 [0 ffffffff 17 800] ------- [23:255 28:255 32 0] 1 [1 1] [0 1 0 0->0] [0 0 0 0->0]
r 5.003477778 _25_ RTR  --- 23 DSR 32 [0 ffffffff 17 800] ------- [23:255 28:255 32 0] 1 [1 1] [0 1 0 0->0] [0 0 0 0->0]
r 5.003477779 _4_ RTR  --- 23 DSR 32 [0 ffffffff 17 800] ------- [23:255 28:255 32 0] 1 [1 1] [0 1 0 0->0] [0 0 0 0->0]
r 5.003477831 _31_ RTR  --- 23 DSR 32 [0 ffffffff 17 800] ------- [23:255 28:255 32 0] 1 [1 1] [0 1 0 0->0] [0 0 0 0->0]
r 5.003477857 _21_ RTR  --- 23 DSR 32 [0 ffffffff 17 800] ------- [23:255 28:255 32 0] 1 [1 1] [0 1 0 0->0] [0 0 0 0->0]
r 5.003477945 _20_ RTR  --- 23 DSR 32 [0 ffffffff 17 800] ------- [23:255 28:255 32 0] 1 [1 1] [0 1 0 0->0] [0 0 0 0->0]
r 5.003478040 _27_ RTR  --- 23 DSR 32 [0 ffffffff 17 800] ------- [23:255 28:255 32 0] 1 [1 1] [0 1 0 0->0] [0 0 0 0->0]
r 5.004427563 _23_ RTR  --- 7 DSR 32 [0 ffffffff 6 800] ------- [6:255 8:255 32 0] 1 [1 1] [0 1 0 0->0] [0 0 0 0->0]
r 5.004427630 _14_ RTR  --- 7 DSR 32 [0 ffffffff 6 800] ------- [6:255 8:255 32 0] 1 [1 1] [0 1 0 0->0] [0 0 0 0->0]
r 5.004427702 _17_ RTR  --- 7 DSR 32 [0 ffffffff 6 800] ------- [6:255 8:255 32 0] 1 [1 1] [0 1 0 0->0] [0 0 0 0->0]
r 5.004427750 _15_ RTR  --- 7 DSR 32 [0 ffffffff 6 800] ------- [6:255 8:255 32 0] 1 [1 1] [0 1 0 0->0] [0 0 0 0->0]
r 5.004427773 _24_ RTR  --- 7 DSR 32 [0 ffffffff 6 800] ------- [6:255 8:255 32 0] 1 [1 1] [0 1 0 0->0] [0 0 0 0->0]
r 5.004427785 _8_ RTR  --- 7 DSR 32 [0 ffffffff 6 800] ------- [6:255 8:255 32 0] 1 [1 1] [0 1 0 0->0] [0 0 0 0->0]
r 5.004427789 _26_ RTR  --- 7 DSR 32 [0 ffffffff 6 800] ------- [6:255 8:255 32 0] 1 [1 1] [0 1 0 0->0] [0 0 0 0->0]
r 5.004427829 _25_ RTR  --- 7 DSR 32 [0 ffffffff 6 800] ------- [6:255 8:255 32 0] 1 [1 1] [0 1 0 0->0] [0 0 0 0->0]
r 5.004427964 _31_ RTR  --- 7 DSR 32 [0 ffffffff 6 800] ------- [6:255 8:255 32 0] 1 [1 1] [0 1 0 0->0] [0 0 0 0->0]
r 5.004427964 _16_ RTR  --- 7 DSR 32 [0 ffffffff 6 800] ------- [6:255 8:255 32 0] 1 [1 1] [0 1 0 0->0] [0 0 0 0->0]
r 5.004427965 _21_ RTR  --- 7 DSR 32 [0 ffffffff 6 800] ------- [6:255 8:255 32 0] 1 [1 1] [0 1 0 0->0] [0 0 0 0->0]
r 5.004427990 _28_ RTR  --- 7 DSR 32 [0 ffffffff 6 800] ------- [6:255 8:255 32 0] 1 [1 1] [0 1 0 0->0] [0 0 0 0->0]
r 5.004427997 _1_ RTR  --- 7 DSR 32 [0 ffffffff 6 800] ------- [6:255 8:255 32 0] 1 [1 1] [0 1 0 0->0] [0 0 0 0->0]
r 5.004428003 _20_ RTR  --- 7 DSR 32 [0 ffffffff 6 800] ------- [6:255 8:255 32 0] 1 [1 1] [0 1 0 0->0] [0 0 0 0->0]
r 5.004428007 _5_ RTR  --- 7 DSR 32 [0 ffffffff 6 800] ------- [6:255 8:255 32 0] 1 [1 1] [0 1 0 0->0] [0 0 0 0->0]
r 5.004428023 _4_ RTR  --- 7 DSR 32 [0 ffffffff 6 800] ------- [6:255 8:255 32 0] 1 [1 1] [0 1 0 0->0] [0 0 0 0->0]
r 5.004428040 _27_ RTR  --- 7 DSR 32 [0 ffffffff 6 800] ------- [6:255 8:255 32 0] 1 [1 1] [0 1 0 0->0] [0 0 0 0->0]
r 5.004428237 _0_ RTR  --- 7 DSR 32 [0 ffffffff 6 800] ------- [6:255 8:255 32 0] 1 [1 1] [0 1 0 0->0] [0 0 0 0->0]
s 5.004906954 _8_ RTR  --- 36 DSR 44 [0 0 0 0] ------- [8:255 6:255 254 6] 2 [0 1] [1 1 2 6->8] [0 0 0 0->0]
r 5.005417965 _17_ RTR  --- 25 DSR 32 [0 ffffffff 1a 800] ------- [26:255 10:255 32 0] 1 [1 1] [0 1 0 0->0] [0 0 0 0->0]
r 5.005417982 _25_ RTR  --- 25 DSR 32 [0 ffffffff 1a 800] ------- [26:255 10:255 32 0] 1 [1 1] [0 1 0 0->0] [0 0 0 0->0]
r 5.005418131 _8_ RTR  --- 25 DSR 32 [0 ffffffff 1a 800] ------- [26:255 10:255 32 0] 1 [1 1] [0 1 0 0->0] [0 0 0 0->0]
r 5.005418138 _6_ RTR  --- 25 DSR 32 [0 ffffffff 1a 800] ------- [26:255 10:255 32 0] 1 [1 1] [0 1 0 0->0] [0 0 0 0->0]
r 5.005418168 _27_ RTR  --- 25 DSR 32 [0 ffffffff 1a 800] ------- [26:255 10:255 32 0] 1 [1 1] [0 1 0 0->0] [0 0 0 0->0]
r 5.005418246 _23_ RTR  --- 25 DSR 32 [0 ffffffff 1a 800] ------- [26:255 10:255 32 0] 1 [1 1] [0 1 0 0->0] [0 0 0 0->0]
r 5.005418308 _31_ RTR  --- 25 DSR 32 [0 ffffffff 1a 800] ------- [26:255 10:255 32 0] 1 [1 1] [0 1 0 0->0] [0 0 0 0->0]
r 5.005418323 _14_ RTR  --- 25 DSR 32 [0 ffffffff 1a 800] ------- [26:255 10:255 32 0] 1 [1 1] [0 1 0 0->0] [0 0 0 0->0]
r 5.005418346 _24_ RTR  --- 25 DSR 32 [0 ffffffff 1a 800] ------- [26:255 10:255 32 0] 1 [1 1] [0 1 0 0->0] [0 0 0 0->0]
r 5.005418437 _15_ RTR  --- 25 DSR 32 [0 ffffffff 1a 800] ------- [26:255 10:255 32 0] 1 [1 1] [0 1 0 0->0] [0 0 0 0->0]
r 5.005418457 _0_ RTR  --- 25 DSR 32 [0 ffffffff 1a 800] ------- [26:255 10:255 32 0] 1 [1 1] [0 1 0 0->0] [0 0 0 0->0]
r 5.005418472 _2_ RTR  --- 25 DSR 32 [0 ffffffff 1a 800] ------- [26:255 10:255 32 0] 1 [1 1] [0 1 0 0->0] [0 0 0 0->0]
r 5.005418479 _20_ RTR  --- 25 DSR 32 [0 ffffffff 1a 800] ------- [26:255 10:255 32 0] 1 [1 1] [0 1 0 0->0] [0 0 0 0->0]
r 5.005418529 _30_ RTR  --- 25 DSR 32 [0 ffffffff 1a 800] ------- [26:255 10:255 32 0] 1 [1 1] [0 1 0 0->0] [0 0 0 0->0]
r 5.005418539 _29_ RTR  --- 25 DSR 32 [0 ffffffff 1a 800] ------- [26:255 10:255 32 0] 1 [1 1] [0 1 0 0->0] [0 0 0 0->0]
r 5.005418555 _21_ RTR  --- 25 DSR 32 [0 ffffffff 1a 800] ------- [26:255 10:255 32 0] 1 [1 1] [0 1 0 0->0] [0 0 0 0->0]
r 5.005418559 _9_ RTR  --- 25 DSR 32 [0 ffffffff 1a 800] ------- [26:255 10:255 32 0] 1 [1 1] [0 1 0 0->0] [0 0 0 0->0]
r 5.005418597 _1_ RTR  --- 25 DSR 32 [0 ffffffff 1a 800] ------- [26:255 10:255 32 0] 1 [1 1] [0 1 0 0->0] [0 0 0 0->0]
s 5.005894741 _4_ RTR  --- 9 DSR 32 [0 0 0 0] ------- [4:255 21:255 32 0] 1 [1 1] [0 1 0 0->0] [0 0 0 0->0]
s 5.006125061 _14_ RTR  --- 27 DSR 32 [0 0 0 0] ------- [14:255 12:255 32 0] 1 [1 1] [0 1 0 0->0] [0 0 0 0->0]
r 5.006268610 _9_ RTR  --- 29 DSR 32 [0 ffffffff 1d 800] ------- [29:255 1:255 32 0] 1 [1 1] [0 1 0 0->0] [0 0 0 0->0]
r 5.006268663 _30_ RTR  --- 29 DSR 32 [0 ffffffff 1d 800] ------- [29:255 1:255 32 0] 1 [1 1] [0 1 0 0->0] [0 0 0 0->0]
r 5.006268718 _2_ RTR  --- 29 DSR 32 [0 ffffffff 1d 800] ------- [29:255 1:255 32 0] 1 [1 1] [0 1 0 0->0] [0 0 0 0->0]
r 5.006268792 _0_ RTR  --- 29 DSR 32 [0 ffffffff 1d 800] ------- [29:255 1:255 32 0] 1 [1 1] [0 1 0 0->0] [0 0 0 0->0]
r 5.006268916 _27_ RTR  --- 29 DSR 32 [0 ffffffff 1d 800] ------- [29:255 1:255 32 0] 1 [1 1] [0 1 0 0->0] [0 0 0 0->0]
r 5.006268990 _19_ RTR  --- 29 DSR 32 [0 ffffffff 1d 800] ------- [29:255 1:255 32 0] 1 [1 1] [0 1 0 0->0] [0 0 0 0->0]
r 5.006269203 _10_ RTR  --- 29 DSR 32 [0 ffffffff 1d 800] ------- [29:255 1:255 32 0] 1 [1 1] [0 1 0 0->0] [0 0 0 0->0]
r 5.006269252 _17_ RTR  --- 29 DSR 32 [0 ffffffff 1d 800] ------- [29:255 1:255 32 0] 1 [1 1] [0 1 0 0->0] [0 0 0 0->0]
r 5.006269290 _26_ RTR  --- 29 DSR 32 [0 ffffffff 1d 800] ------- [29:255 1:255 32 0] 1 [1 1] [0 1 0 0->0] [0 0 0 0->0]
r 5.006269298 _20_ RTR  --- 29 DSR 32 [0 ffffffff 1d 800] ------- [29:255 1:255 32 0] 1 [1 1] [0 1 0 0->0] [0 0 0 0->0]
s 5.006339506 _13_ RTR  --- 31 DSR 32 [0 0 0 0] ------- [13:255 27:255 32 0] 1 [1 1] [0 1 0 0->0] [0 0 0 0->0]
s 5.006569939 _25_ RTR  --- 3 DSR 32 [0 0 0 0] ------- [25:255 31:255 32 0] 1 [1 1] [0 1 0 0->0] [0 0 0 0->0]
r 5.007423988 _11_ RTR  --- 1 DSR 32 [0 ffffffff 7 800] ------- [7:255 15:255 32 0] 1 [1 1] [0 1 0 0->0] [0 0 0 0->0]
r 5.007424063 _21_ RTR  --- 1 DSR 32 [0 ffffffff 7 800] ------- [7:255 15:255 32 0] 1 [1 1] [0 1 0 0->0] [0 0 0 0->0]
r 5.007424155 _12_ RTR  --- 1 DSR 32 [0 ffffffff 7 800] ------- [7:255 15:255 32 0] 1 [1 1] [0 1 0 0->0] [0 0 0 0->0]
r 5.007424173 _18_ RTR  --- 1 DSR 32 [0 ffffffff 7 800] ------- [7:255 15:255 32 0] 1 [1 1] [0 1 0 0->0] [0 0 0 0->0]
r 5.007424181 _20_ RTR  --- 1 DSR 32 [0 ffffffff 7 800] ------- [7:255 15:255 32 0] 1 [1 1] [0 1 0 0->0] [0 0 0 0->0]
r 5.007424312 _10_ RTR  --- 1 DSR 32 [0 ffffffff 7 800] ------- [7:255 15:255 32 0] 1 [1 1] [0 1 0 0->0] [0 0 0 0->0]
r 5.007424371 _22_ RTR  --- 1 DSR 32 [0 ffffffff 7 800] ------- [7:255 15:255 32 0] 1 [1 1] [0 1 0 0->0] [0 0 0 0->0]
r 5.007424516 _3_ RTR  --- 1 DSR 32 [0 ffffffff 7 800] ------- [7:255 15:255 32 0] 1 [1 1] [0 1 0 0->0] [0 0 0 0->0]
s 5.007431755 _18_ RTR  --- 13 DSR 32 [0 0 0 0] ------- [18:255 20:255 32 0] 1 [1 1] [0 1 0 0->0] [0 0 0 0->0]
s 5.007573395 _17_ RTR  --- 11 DSR 32 [0 0 0 0] ------- [17:255 2:255 32 0] 1 [1 1] [0 1 0 0->0] [0 0 0 0->0]
s 5.008185278 _3_ RTR  --- 19 DSR 32 [0 0 0 0] ------- [3:255 30:255 32 0] 1 [1 1] [0 1 0 0->0] [0 0 0 0->0]
s 5.008482080 _24_ RTR  --- 32 DSR 44 [0 0 0 0] ------- [24:255 0:255 254 0] 2 [0 1] [1 1 2 0->24] [0 0 0 0->0]
s 5.008752460 _16_ RTR  --- 33 DSR 44 [0 0 0 0] ------- [16:255 5:255 254 5] 2 [0 1] [1 1 2 5->16] [0 0 0 0->0]
s 5.008908880 _22_ RTR  --- 17 DSR 32 [0 0 0 0] ------- [22:255 19:255 32 0] 1 [1 1] [0 1 0 0->0] [0 0 0 0->0]
s 5.009142857 _7_ AGT  --- 38 cbr 512 [0 0 0 0] ------- [7:0 15:0 32 0] [1] 0 0
r 5.009142857 _7_ RTR  --- 38 cbr 512 [0 0 0 0] ------- [7:0 15:0 32 0] [1] 0 0
s 5.009142857 _25_ AGT  --- 40 cbr 512 [0 0 0 0] ------- [25:0 31:0 32 0] [1] 0 0
r 5.009142857 _25_ RTR  --- 40 cbr 512 [0 0 0 0] ------- [25:0 31:0 32 0] [1] 0 0
s 5.009142857 _5_ AGT  --- 42 cbr 512 [0 0 0 0] ------- [5:0 16:0 32 0] [1] 0 0
r 5.009142857 _5_ RTR  --- 42 cbr 512 [0 0 0 0] ------- [5:0 16:0 32 0] [1] 0 0
s 5.009142857 _6_ AGT  --- 44 cbr 512 [0 0 0 0] ------- [6:0 8:0 32 0] [1] 0 0
r 5.009142857 _6_ RTR  --- 44 cbr 512 [0 0 0 0] ------- [6:0 8:0 32 0] [1] 0 0
s 5.009142857 _4_ AGT  --- 46 cbr 512 [0 0 0 0] ------- [4:0 21:0 32 0] [1] 0 0
r 5.009142857 _4_ RTR  --- 46 cbr 512 [0 0 0 0] ------- [4:0 21:0 32 0] [1] 0 0
s 5.009142857 _17_ AGT  --- 48 cbr 512 [0 0 0 0] ------- [17:0 2:0 32 0] [1] 0 0
r 5.009142857 _17_ RTR  --- 48 cbr 512 [0 0 0 0] ------- [17:0 2:0 32 0] [1] 0 0
s 5.009142857 _18_ AGT  --- 50 cbr 512 [0 0 0 0] ------- [18:0 20:0 32 0] [1] 0 0
r 5.009142857 _18_ RTR  --- 50 cbr 512 [0 0 0 0] ------- [18:0 20:0 32 0] [1] 0 0
s 5.009142857 _9_ AGT  --- 52 cbr 512 [0 0 0 0] ------- [9:0 11:0 32 0] [1] 0 0
r 5.009142857 _9_ RTR  --- 52 cbr 512 [0 0 0 0] ------- [9:0 11:0 32 0] [1] 0 0
s 5.009142857 _22_ AGT  --- 54 cbr 512 [0 0 0 0] ------- [22:0 19:0 32 0] [1] 0 0
r 5.009142857 _22_ RTR  --- 54 cbr 512 [0 0 0 0] ------- [22:0 19:0 32 0] [1] 0 0
s 5.009142857 _3_ AGT  --- 56 cbr 512 [0 0 0 0] ------- [3:0 30:0 32 0] [1] 0 0
r 5.009142857 _3_ RTR  --- 56 cbr 512 [0 0 0 0] ------- [3:0 30:0 32 0] [1] 0 0
s 5.009142857 _0_ AGT  --- 58 cbr 512 [0 0 0 0] ------- [0:0 24:0 32 0] [1] 0 0
r 5.009142857 _0_ RTR  --- 58 cbr 512 [0 0 0 0] ------- [0:0 24:0 32 0] [1] 0 0
s 5.009142857 _23_ AGT  --- 60 cbr 512 [0 0 0 0] ------- [23:0 28:0 32 0] [1] 0 0
r 5.009142857 _23_ RTR  --- 60 cbr 512 [0 0 0 0] ------- [23:0 28:0 32 0] [1] 0 0
s 5.009142857 _26_ AGT  --- 62 cbr 512 [0 0 0 0] ------- [26:0 10:0 32 0] [1] 0 0
r 5.009142857 _26_ RTR  --- 62 cbr 512 [0 0 0 0] ------- [26:0 10:0 32 0] [1] 0 0
s 5.009142857 _14_ AGT  --- 64 cbr 512 [0 0 0 0] ------- [14:0 12:0 32 0] [1] 0 0
r 5.009142857 _14_ RTR  --- 64 cbr 512 [0 0 0 0] ------- [14:0 12:0 32 0] [1] 0 0
s 5.009142857 _29_ AGT  --- 66 cbr 512 [0 0 0 0] ------- [29:0 1:0 32 0] [1] 0 0
r 5.009142857 _29_ RTR  --- 66 cbr 512 [0 0 0 0] ------- [29:0 1:0 32 0] [1] 0 0
s 5.009142857 _13_ AGT  --- 68 cbr 512 [0 0 0 0] ------- [13:0 27:0 32 0] [1] 0 0
r 5.009142857 _13_ RTR  --- 68 cbr 512 [0 0 0 0] ------- [13:0 27:0 32 0] [1] 0 0
s 5.011583893 _28_ RTR  --- 34 DSR 44 [0 0 0 0] ------- [28:255 23:255 254 23] 2 [0 1] [1 1 2 23->28] [0 0 0 0->0]
r 5.011860004 _6_ RTR  --- 36 DSR 44 [13a 6 8 800] ------- [8:255 6:255 254 6] 2 [0 1] [1 1 2 6->8] [0 0 0 0->0]
SFESTs 5.011860004 _6_ 6 [6 -> 8] 1(1) to 8 [6 |8 ]
SFESTs 5.011860004 _6_ 44 [6 -> 8] 1(1) to 8 [6 |8 ]
s 5.011860004 _6_ RTR  --- 6 cbr 548 [0 0 0 0] ------- [6:0 8:0 32 8] [0] 0 0
r 5.012984581 _8_ RTR  --- 3 DSR 32 [0 ffffffff 19 800] ------- [25:255 31:255 32 0] 1 [1 1] [0 1 0 0->0] [0 0 0 0->0]
r 5.012984585 _26_ RTR  --- 3 DSR 32 [0 ffffffff 19 800] ------- [25:255 31:255 32 0] 1 [1 1] [0 1 0 0->0] [0 0 0 0->0]
r 5.012984728 _31_ RTR  --- 3 DSR 32 [0 ffffffff 19 800] ------- [25:255 31:255 32 0] 1 [1 1] [0 1 0 0->0] [0 0 0 0->0]
r 5.012984731 _17_ RTR  --- 3 DSR 32 [0 ffffffff 19 800] ------- [25:255 31:255 32 0] 1 [1 1] [0 1 0 0->0] [0 0 0 0->0]
r 5.012984780 _6_ RTR  --- 3 DSR 32 [0 ffffffff 19 800] ------- [25:255 31:255 32 0] 1 [1 1] [0 1 0 0->0] [0 0 0 0->0]
r 5.012984851 _23_ RTR  --- 3 DSR 32 [0 ffffffff 19 800] ------- [25:255 31:255 32 0] 1 [1 1] [0 1 0 0->0] [0 0 0 0->0]
r 5.012984933 _14_ RTR  --- 3 DSR 32 [0 ffffffff 19 800] ------- [25:255 31:255 32 0] 1 [1 1] [0 1 0 0->0] [0 0 0 0->0]
r 5.012984958 _27_ RTR  --- 3 DSR 32 [0 ffffffff 19 800] ------- [25:255 31:255 32 0] 1 [1 1] [0 1 0 0->0] [0 0 0 0->0]
r 5.012985025 _15_ RTR  --- 3 DSR 32 [0 ffffffff 19 800] ------- [25:255 31:255 32 0] 1 [1 1] [0 1 0 0->0] [0 0 0 0->0]
r 5.012985068 _24_ RTR  --- 3 DSR 32 [0 ffffffff 19 800] ------- [25:255 31:255 32 0] 1 [1 1] [0 1 0 0->0] [0 0 0 0->0]
r 5.012985098 _1_ RTR  --- 3 DSR 32 [0 ffffffff 19 800] ------- [25:255 31:255 32 0] 1 [1 1] [0 1 0 0->0] [0 0 0 0->0]
r 5.012985191 _5_ RTR  --- 3 DSR 32 [0 ffffffff 19 800] ------- [25:255 31:255 32 0] 1 [1 1] [0 1 0 0->0] [0 0 0 0->0]
r 5.012985198 _28_ RTR  --- 3 DSR 32 [0 ffffffff 19 800] ------- [25:255 31:255 32 0] 1 [1 1] [0 1 0 0->0] [0 0 0 0->0]
r 5.013774907 _26_ RTR  --- 11 DSR 32 [0 ffffffff 11 800] ------- [17:255 2:255 32 0] 1 [1 1] [0 1 0 0->0] [0 0 0 0->0]
r 5.013774992 _6_ RTR  --- 11 DSR 32 [0 ffffffff 11 800] ------- [17:255 2:255 32 0] 1 [1 1] [0 1 0 0->0] [0 0 0 0->0]
r 5.013775070 _25_ RTR  --- 11 DSR 32 [0 ffffffff 11 800] ------- [17:255 2:255 32 0] 1 [1 1] [0 1 0 0->0] [0 0 0 0->0]
r 5.013775073 _27_ RTR  --- 11 DSR 32 [0 ffffffff 11 800] ------- [17:255 2:255 32 0] 1 [1 1] [0 1 0 0->0] [0 0 0 0->0]
r 5.013775115 _23_ RTR  --- 11 DSR 32 [0 ffffffff 11 800] ------- [17:255 2:255 32 0] 1 [1 1] [0 1 0 0->0] [0 0 0 0->0]
r 5.013775117 _24_ RTR  --- 11 DSR 32 [0 ffffffff 11 800] ------- [17:255 2:255 32 0] 1 [1 1] [0 1 0 0->0] [0 0 0 0->0]
r 5.013775158 _8_ RTR  --- 11 DSR 32 [0 ffffffff 11 800] ------- [17:255 2:255 32 0] 1 [1 1] [0 1 0 0->0] [0 0 0 0->0]
r 5.013775177 _14_ RTR  --- 11 DSR 32 [0 ffffffff 11 800] ------- [17:255 2:255 32 0] 1 [1 1] [0 1 0 0->0] [0 0 0 0->0]
r 5.013775246 _20_ RTR  --- 11 DSR 32 [0 ffffffff 11 800] ------- [17:255 2:255 32 0] 1 [1 1] [0 1 0 0->0] [0 0 0 0->0]
r 5.013775300 _15_ RTR  --- 11 DSR 32 [0 ffffffff 11 800] ------- [17:255 2:255 32 0] 1 [1 1] [0 1 0 0->0] [0 0 0 0->0]
r 5.013775306 _0_ RTR  --- 11 DSR 32 [0 ffffffff 11 800] ------- [17:255 2:255 32 0] 1 [1 1] [0 1 0 0->0] [0 0 0 0->0]
r 5.013775325 _21_ RTR  --- 11 DSR 32 [0 ffffffff 11 800] ------- [17:255 2:255 32 0] 1 [1 1] [0 1 0 0->0] [0 0 0 0->0]
r 5.013775339 _2_ RTR  --- 11 DSR 32 [0 ffffffff 11 800] ------- [17:255 2:255 32 0] 1 [1 1] [0 1 0 0->0] [0 0 0 0->0]
r 5.013775352 _31_ RTR  --- 11 DSR 32 [0 ffffffff 11 800] ------- [17:255 2:255 32 0] 1 [1 1] [0 1 0 0->0] [0 0 0 0->0]
r 5.013775443 _29_ RTR  --- 11 DSR 32 [0 ffffffff 11 800] ------- [17:255 2:255 32 0] 1 [1 1] [0 1 0 0->0] [0 0 0 0->0]
r 5.013775447 _19_ RTR  --- 11 DSR 32 [0 ffffffff 11 800] ------- [17:255 2:255 32 0] 1 [1 1] [0 1 0 0->0] [0 0 0 0->0]
r 5.013775447 _9_ RTR  --- 11 DSR 32 [0 ffffffff 11 800] ------- [17:255 2:255 32 0] 1 [1 1] [0 1 0 0->0] [0 0 0 0->0]
r 5.013775463 _30_ RTR  --- 11 DSR 32 [0 ffffffff 11 800] ------- [17:255 2:255 32 0] 1 [1 1] [0 1 0 0->0] [0 0 0 0->0]
r 5.013775508 _16_ RTR  --- 11 DSR 32 [0 ffffffff 11 800] ------- [17:255 2:255 32 0] 1 [1 1] [0 1 0 0->0] [0 0 0 0->0]
r 5.013775511 _10_ RTR  --- 11 DSR 32 [0 ffffffff 11 800] ------- [17:255 2:255 32 0] 1 [1 1] [0 1 0 0->0] [0 0 0 0->0]
r 5.013775531 _1_ RTR  --- 11 DSR 32 [0 ffffffff 11 800] ------- [17:255 2:255 32 0] 1 [1 1] [0 1 0 0->0] [0 0 0 0->0]
r 5.013775541 _28_ RTR  --- 11 DSR 32 [0 ffffffff 11 800] ------- [17:255 2:255 32 0] 1 [1 1] [0 1 0 0->0] [0 0 0 0->0]
r 5.013775556 _5_ RTR  --- 11 DSR 32 [0 ffffffff 11 800] ------- [17:255 2:255 32 0] 1 [1 1] [0 1 0 0->0] [0 0 0 0->0]
r 5.014645518 _29_ RTR  --- 15 DSR 32 [0 ffffffff 9 800] ------- [9:255 11:255 32 0] 1 [1 1] [0 1 0 0->0] [0 0 0 0->0]
r 5.014645581 _2_ RTR  --- 15 DSR 32 [0 ffffffff 9 800] ------- [9:255 11:255 32 0] 1 [1 1] [0 1 0 0->0] [0 0 0 0->0]
r 5.014645641 _30_ RTR  --- 15 DSR 32 [0 ffffffff 9 800] ------- [9:255 11:255 32 0] 1 [1 1] [0 1 0 0->0] [0 0 0 0->0]
r 5.014645653 _0_ RTR  --- 15 DSR 32 [0 ffffffff 9 800] ------- [9:255 11:255 32 0] 1 [1 1] [0 1 0 0->0] [0 0 0 0->0]
r 5.014645831 _19_ RTR  --- 15 DSR 32 [0 ffffffff 9 800] ------- [9:255 11:255 32 0] 1 [1 1] [0 1 0 0->0] [0 0 0 0->0]
r 5.014645838 _27_ RTR  --- 15 DSR 32 [0 ffffffff 9 800] ------- [9:255 11:255 32 0] 1 [1 1] [0 1 0 0->0] [0 0 0 0->0]
r 5.014646045 _10_ RTR  --- 15 DSR 32 [0 ffffffff 9 800] ------- [9:255 11:255 32 0] 1 [1 1] [0 1 0 0->0] [0 0 0 0->0]
r 5.014646163 _17_ RTR  --- 15 DSR 32 [0 ffffffff 9 800] ------- [9:255 11:255 32 0] 1 [1 1] [0 1 0 0->0] [0 0 0 0->0]
r 5.014646217 _26_ RTR  --- 15 DSR 32 [0 ffffffff 9 800] ------- [9:255 11:255 32 0] 1 [1 1] [0 1 0 0->0] [0 0 0 0->0]
r 5.014646233 _3_ RTR  --- 15 DSR 32 [0 ffffffff 9 800] ------- [9:255 11:255 32 0] 1 [1 1] [0 1 0 0->0] [0 0 0 0->0]
r 5.016245400 _23_ RTR  --- 27 DSR 32 [0 ffffffff e 800] ------- [14:255 12:255 32 0] 1 [1 1] [0 1 0 0->0] [0 0 0 0->0]
r 5.016245442 _15_ RTR  --- 27 DSR 32 [0 ffffffff e 800] ------- [14:255 12:255 32 0] 1 [1 1] [0 1 0 0->0] [0 0 0 0->0]
r 5.016245507 _6_ RTR  --- 27 DSR 32 [0 ffffffff e 800] ------- [14:255 12:255 32 0] 1 [1 1] [0 1 0 0->0] [0 0 0 0->0]
r 5.016245653 _16_ RTR  --- 27 DSR 32 [0 ffffffff e 800] ------- [14:255 12:255 32 0] 1 [1 1] [0 1 0 0->0] [0 0 0 0->0]
r 5.016245684 _24_ RTR  --- 27 DSR 32 [0 ffffffff e 800] ------- [14:255 12:255 32 0] 1 [1 1] [0 1 0 0->0] [0 0 0 0->0]
r 5.016245693 _28_ RTR  --- 27 DSR 32 [0 ffffffff e 800] ------- [14:255 12:255 32 0] 1 [1 1] [0 1 0 0->0] [0 0 0 0->0]
r 5.016245716 _4_ RTR  --- 27 DSR 32 [0 ffffffff e 800] ------- [14:255 12:255 32 0] 1 [1 1] [0 1 0 0->0] [0 0 0 0->0]
r 5.016245719 _5_ RTR  --- 27 DSR 32 [0 ffffffff e 800] ------- [14:255 12:255 32 0] 1 [1 1] [0 1 0 0->0] [0 0 0 0->0]
r 5.016245752 _1_ RTR  --- 27 DSR 32 [0 ffffffff e 800] ------- [14:255 12:255 32 0] 1 [1 1] [0 1 0 0->0] [0 0 0 0->0]
r 5.016245758 _8_ RTR  --- 27 DSR 32 [0 ffffffff e 800] ------- [14:255 12:255 32 0] 1 [1 1] [0 1 0 0->0] [0 0 0 0->0]
r 5.016245764 _17_ RTR  --- 27 DSR 32 [0 ffffffff e 800] ------- [14:255 12:255 32 0] 1 [1 1] [0 1 0 0->0] [0 0 0 0->0]
r 5.016245818 _21_ RTR  --- 27 DSR 32 [0 ffffffff e 800] ------- [14:255 12:255 32 0] 1 [1 1] [0 1 0 0->0] [0 0 0 0->0]
r 5.016245852 _26_ RTR  --- 27 DSR 32 [0 ffffffff e 800] ------- [14:255 12:255 32 0] 1 [1 1] [0 1 0 0->0] [0 0 0 0->0]
r 5.016245859 _25_ RTR  --- 27 DSR 32 [0 ffffffff e 800] ------- [14:255 12:255 32 0] 1 [1 1] [0 1 0 0->0] [0 0 0 0->0]
r 5.016245894 _31_ RTR  --- 27 DSR 32 [0 ffffffff e 800] ------- [14:255 12:255 32 0] 1 [1 1] [0 1 0 0->0] [0 0 0 0->0]
r 5.016245937 _20_ RTR  --- 27 DSR 32 [0 ffffffff e 800] ------- [14:255 12:255 32 0] 1 [1 1] [0 1 0 0->0] [0 0 0 0->0]
r 5.016246096 _27_ RTR  --- 27 DSR 32 [0 ffffffff e 800] ------- [14:255 12:255 32 0] 1 [1 1] [0 1 0 0->0] [0 0 0 0->0]
r 5.016246134 _7_ RTR  --- 27 DSR 32 [0 ffffffff e 800] ------- [14:255 12:255 32 0] 1 [1 1] [0 1 0 0->0] [0 0 0 0->0]
s 5.016889298 _2_ RTR  --- 71 DSR 44 [0 0 0 0] ------- [2:255 17:255 254 17] 2 [0 1] [1 1 2 17->2] [0 0 0 0->0]
s 5.017275494 _31_ RTR  --- 70 DSR 44 [0 0 0 0] ------- [31:255 25:255 254 25] 2 [0 1] [1 1 2 25->31] [0 0 0 0->0]
s 5.018285714 _7_ AGT  --- 76 cbr 512 [0 0 0 0] ------- [7:0 15:0 32 0] [2] 0 0
r 5.018285714 _7_ RTR  --- 76 cbr 512 [0 0 0 0] ------- [7:0 15:0 32 0] [2] 0 0
s 5.018285714 _25_ AGT  --- 78 cbr 512 [0 0 0 0] ------- [25:0 31:0 32 0] [2] 0 0
r 5.018285714 _25_ RTR  --- 78 cbr 512 [0 0 0 0] ------- [25:0 31:0 32 0] [2] 0 0
s 5.018285714 _5_ AGT  --- 80 cbr 512 [0 0 0 0] ------- [5:0 16:0 32 0] [2] 0 0
r 5.018285714 _5_ RTR  --- 80 cbr 512 [0 0 0 0] ------- [5:0 16:0 32 0] [2] 0 0