n -t * -s 0  -x 407 -y 361 -Z 0 -z 20  -v circle -c black
n -t * -s 1  -x 1 -y 371 -Z 0 -z 20  -v circle -c black
n -t * -s 2  -x 420 -y 379 -Z 0 -z 20  -v circle -c black
n -t * -s 3  -x 491 -y 168 -Z 0 -z 20  -v circle -c black
n -t * -s 4  -x 16 -y 282 -Z 0 -z 20  -v circle -c black
n -t * -s 5  -x 5 -y 320 -Z 0 -z 20  -v circle -c black
n -t * -s 6  -x 168 -y 368 -Z 0 -z 20  -v circle -c black
n -t * -s 7  -x 257 -y 125 -Z 0 -z 20  -v circle -c black
n -t * -s 8  -x 127 -y 463 -Z 0 -z 20  -v circle -c black
n -t * -s 9  -x 454 -y 401 -Z 0 -z 20  -v circle -c black
n -t * -s 10  -x 399 -y 230 -Z 0 -z 20  -v circle -c black
n -t * -s 11  -x 336 -y 117 -Z 0 -z 20  -v circle -c black
n -t * -s 12  -x 384 -y 99 -Z 0 -z 20  -v circle -c black
n -t * -s 13  -x 12 -y 19 -Z 0 -z 20  -v circle -c black
n -t * -s 14  -x 125 -y 331 -Z 0 -z 20  -v circle -c black
n -t * -s 15  -x 91 -y 316 -Z 0 -z 20  -v circle -c black
n -t * -s 16  -x 52 -y 262 -Z 0 -z 20  -v circle -c black
n -t * -s 17  -x 239 -y 401 -Z 0 -z 20  -v circle -c black
n -t * -s 18  -x 134 -y 70 -Z 0 -z 20  -v circle -c black
n -t * -s 19  -x 423 -y 290 -Z 0 -z 20  -v circle -c black
n -t * -s 20  -x 295 -y 257 -Z 0 -z 20  -v circle -c black
n -t * -s 21  -x 229 -y 223 -Z 0 -z 20  -v circle -c black
n -t * -s 22  -x 416 -y 13 -Z 0 -z 20  -v circle -c black
n -t * -s 23  -x 134 -y 354 -Z 0 -z 20  -v circle -c black
n -t * -s 24  -x 225 -y 286 -Z 0 -z 20  -v circle -c black
n -t * -s 25  -x 180 -y 484 -Z 0 -z 20  -v circle -c black
n -t * -s 26  -x 229 -y 453 -Z 0 -z 20  -v circle -c black
n -t * -s 27  -x 339 -y 424 -Z 0 -z 20  -v circle -c black
n -t * -s 28  -x 15 -y 307 -Z 0 -z 20  -v circle -c black
n -t * -s 29  -x 452 -y 422 -Z 0 -z 20  -v circle -c black
n -t * -s 30  -x 451 -y 459 -Z 0 -z 20  -v circle -c black
n -t * -s 31  -x 80 -y 498 -Z 0 -z 20  -v circle -c black
V -t * -v 1.0a5 -a 0
W -t * -x 500 -y 500
A -t * -n 1 -p 0 -o 0x7fffffff -c 30 -a 1
A -t * -h 1 -m 1073741823 -s 0
n -t 0 -s 0 -S DLABEL -l "Source01" -L ""
n -t 0 -s 1 -S DLABEL -l "Source02" -L ""
n -t 0 -s 2 -S DLABEL -l "Sink01" -L ""
n -t 0 -s 3 -S DLABEL -l "Sink02" -L ""
n -t 0 -s 5 -S DLABEL -l "N5" -L ""
n -t 0 -s 6 -S DLABEL -l "N6" -L ""
n -t 0 -s 7 -S DLABEL -l "N7" -L ""
n -t 0 -s 8 -S DLABEL -l "N8" -L ""
n -t 0 -s 9 -S DLABEL -l "N9" -L ""
n -t 0 -s 10 -S DLABEL -l "N10" -L ""
n -t 0 -s 11 -S DLABEL -l "N11" -L ""
n -t 0 -s 12 -S DLABEL -l "N12" -L ""
n -t 0 -s 13 -S DLABEL -l "N13" -L ""
n -t 0 -s 14 -S DLABEL -l "N14" -L ""
n -t 0 -s 15 -S DLABEL -l "N15" -L ""
n -t 0 -s 16 -S DLABEL -l "N16" -L ""
n -t 0 -s 17 -S DLABEL -l "N17" -L ""
n -t 0 -s 18 -S DLABEL -l "N18" -L ""
n -t 0 -s 19 -S DLABEL -l "N19" -L ""
n -t 0 -s 20 -S DLABEL -l "N20" -L ""
n -t 0 -s 21 -S DLABEL -l "N21" -L ""
n -t 0 -s 22 -S DLABEL -l "N22" -L ""
n -t 0 -s 23 -S DLABEL -l "N23" -L ""
n -t 0 -s 24 -S DLABEL -l "N24" -L ""
n -t 0 -s 25 -S DLABEL -l "N25" -L ""
n -t 0 -s 26 -S DLABEL -l "N26" -L ""
n -t 0 -s 27 -S DLABEL -l "N27" -L ""
n -t 0 -s 28 -S DLABEL -l "N28" -L ""
n -t 0 -s 29 -S DLABEL -l "N29" -L ""
n -t 0 -s 30 -S DLABEL -l "N30" -L ""
n -t 0 -s 31 -S DLABEL -l "N31" -L ""
n -t 5.000000 -s 0 -x 407.000000 -y 361.000000 -U -11.778441 -V -2.295286 -T 33.111344
n -t 5.000000 -s 1 -x 1.000000 -y 371.000000 -U 3.079715 -V -11.598076 -T 30.522305
n -t 5.000000 -s 2 -x 420.000000 -y 379.000000 -U 6.276195 -V 10.227873 -T 8.603940
n -t 5.000000 -s 3 -x 491.000000 -y 168.000000 -U -11.469348 -V 3.529030 -T 20.402206
n -t 5.000000 -s 4 -x 16.000000 -y 282.000000 -U 9.799347 -V 6.926240 -T 19.491095
n -t 5.000000 -s 5 -x 5.000000 -y 320.000000 -U 11.803624 -V -2.162050 -T 17.113388
n -t 5.000000 -s 6 -x 168.000000 -y 368.000000 -U 11.964654 -V -0.920358 -T 9.778804
n -t 5.000000 -s 7 -x 257.000000 -y 125.000000 -U 10.005356 -V 6.625168 -T 22.188116
n -t 5.000000 -s 8 -x 127.000000 -y 463.000000 -U 11.897254 -V -1.566955 -T 17.230867
n -t 5.000000 -s 9 -x 454.000000 -y 401.000000 -U -0.248909 -V -11.997418 -T 20.087655
n -t 5.000000 -s 10 -x 399.000000 -y 230.000000 -U -7.136408 -V 9.647366 -T 22.700496
n -t 5.000000 -s 11 -x 336.000000 -y 117.000000 -U -7.687671 -V 9.214104 -T 36.031718
n -t 5.000000 -s 12 -x 384.000000 -y 99.000000 -U -1.023494 -V 11.956273 -T 21.494993
n -t 5.000000 -s 13 -x 12.000000 -y 19.000000 -U 8.087981 -V 8.864793 -T 43.768647
n -t 5.000000 -s 14 -x 125.000000 -y 331.000000 -U 0.107139 -V 11.999522 -T 9.333705
n -t 5.000000 -s 15 -x 91.000000 -y 316.000000 -U 8.142301 -V -8.814926 -T 28.247542
n -t 5.000000 -s 16 -x 52.000000 -y 262.000000 -U 11.283190 -V 4.085293 -T 35.982731
n -t 5.000000 -s 17 -x 239.000000 -y 401.000000 -U 11.523304 -V 3.348652 -T 10.153338
n -t 5.000000 -s 18 -x 134.000000 -y 70.000000 -U 0.996546 -V 11.958549 -T 34.117851
n -t 5.000000 -s 19 -x 423.000000 -y 290.000000 -U -6.837355 -V -9.861570 -T 7.605280
n -t 5.000000 -s 20 -x 295.000000 -y 257.000000 -U 8.348448 -V -8.619943 -T 14.733277
n -t 5.000000 -s 21 -x 229.000000 -y 223.000000 -U 5.098886 -V 10.862843 -T 13.532369
n -t 5.000000 -s 22 -x 416.000000 -y 13.000000 -U 1.507745 -V 11.904903 -T 31.835624
n -t 5.000000 -s 23 -x 134.000000 -y 354.000000 -U 10.958775 -V -4.889300 -T 17.793960
n -t 5.000000 -s 24 -x 225.000000 -y 286.000000 -U 11.235950 -V 4.213481 -T 17.800008
n -t 5.000000 -s 25 -x 180.000000 -y 484.000000 -U 4.128999 -V -11.267270 -T 14.289176
n -t 5.000000 -s 26 -x 229.000000 -y 453.000000 -U -3.966903 -V -11.325356 -T 33.023245
n -t 5.000000 -s 27 -x 339.000000 -y 424.000000 -U 2.923915 -V -11.638330 -T 17.442365
n -t 5.000000 -s 28 -x 15.000000 -y 307.000000 -U 11.268505 -V -4.125627 -T 32.479908
n -t 5.000000 -s 29 -x 452.000000 -y 422.000000 -U -10.970873 -V -4.862092 -T 24.063718
n -t 5.000000 -s 30 -x 451.000000 -y 459.000000 -U -5.746226 -V -10.534747 -T 41.766547
n -t 5.000000 -s 31 -x 80.000000 -y 498.000000 -U 6.326679 -V -10.196722 -T 29.715433
+ -t 5.000000000 -s 7 -d -1 -p cbr -e 512 -c 2 -a 0 -i 0 -k AGT 
- -t 5.000000000 -s 7 -d -1 -p cbr -e 512 -c 2 -a 0 -i 0 -k AGT
h -t 5.000000000 -s 7 -d -1 -p cbr -e 512 -c 2 -a 0 -i 0 -k AGT
+ -t 5.000000000 -s 25 -d -1 -p cbr -e 512 -c 2 -a 0 -i 2 -k AGT 
- -t 5.000000000 -s 25 -d -1 -p cbr -e 512 -c 2 -a 0 -i 2 -k AGT
h -t 5.000000000 -s 25 -d -1 -p cbr -e 512 -c 2 -a 0 -i 2 -k AGT
+ -t 5.000000000 -s 5 -d -1 -p cbr -e 512 -c 2 -a 0 -i 4 -k AGT 
- -t 5.000000000 -s 5 -d -1 -p cbr -e 512 -c 2 -a 0 -i 4 -k AGT
h -t 5.000000000 -s 5 -d -1 -p cbr -e 512 -c 2 -a 0 -i 4 -k AGT
+ -t 5.000000000 -s 6 -d -1 -p cbr -e 512 -c 2 -a 0 -i 6 -k AGT 
- -t 5.000000000 -s 6 -d -1 -p cbr -e 512 -c 2 -a 0 -i 6 -k AGT
h -t 5.000000000 -s 6 -d -1 -p cbr -e 512 -c 2 -a 0 -i 6 -k AGT
+ -t 5.000000000 -s 4 -d -1 -p cbr -e 512 -c 2 -a 0 -i 8 -k AGT 
- -t 5.000000000 -s 4 -d -1 -p cbr -e 512 -c 2 -a 0 -i 8 -k AGT
h -t 5.000000000 -s 4 -d -1 -p cbr -e 512 -c 2 -a 0 -i 8 -k AGT
+ -t 5.000000000 -s 17 -d -1 -p cbr -e 512 -c 2 -a 0 -i 10 -k AGT 
- -t 5.000000000 -s 17 -d -1 -p cbr -e 512 -c 2 -a 0 -i 10 -k AGT
h -t 5.000000000 -s 17 -d -1 -p cbr -e 512 -c 2 -a 0 -i 10 -k AGT
+ -t 5.000000000 -s 18 -d -1 -p cbr -e 512 -c 2 -a 0 -i 12 -k AGT 
- -t 5.000000000 -s 18 -d -1 -p cbr -e 512 -c 2 -a 0 -i 12 -k AGT
h -t 5.000000000 -s 18 -d -1 -p cbr -e 512 -c 2 -a 0 -i 12 -k AGT
+ -t 5.000000000 -s 9 -d -1 -p cbr -e 512 -c 2 -a 0 -i 14 -k AGT 
- -t 5.000000000 -s 9 -d -1 -p cbr -e 512 -c 2 -a 0 -i 14 -k AGT
h -t 5.000000000 -s 9 -d -1 -p cbr -e 512 -c 2 -a 0 -i 14 -k AGT
+ -t 5.000000000 -s 22 -d -1 -p cbr -e 512 -c 2 -a 0 -i 16 -k AGT 
- -t 5.000000000 -s 22 -d -1 -p cbr -e 512 -c 2 -a 0 -i 16 -k AGT
h -t 5.000000000 -s 22 -d -1 -p cbr -e 512 -c 2 -a 0 -i 16 -k AGT
+ -t 5.000000000 -s 3 -d -1 -p cbr -e 512 -c 2 -a 0 -i 18 -k AGT 
- -t 5.000000000 -s 3 -d -1 -p cbr -e 512 -c 2 -a 0 -i 18 -k AGT
h -t 5.000000000 -s 3 -d -1 -p cbr -e 512 -c 2 -a 0 -i 18 -k AGT
+ -t 5.000000000 -s 0 -d -1 -p cbr -e 512 -c 2 -a 0 -i 20 -k AGT 
- -t 5.000000000 -s 0 -d -1 -p cbr -e 512 -c 2 -a 0 -i 20 -k AGT
h -t 5.000000000 -s 0 -d -1 -p cbr -e 512 -c 2 -a 0 -i 20 -k AGT
+ -t 5.000000000 -s 23 -d -1 -p cbr -e 512 -c 2 -a 0 -i 22 -k AGT 
- -t 5.000000000 -s 23 -d -1 -p cbr -e 512 -c 2 -a 0 -i 22 -k AGT
h -t 5.000000000 -s 23 -d -1 -p cbr -e 512 -c 2 -a 0 -i 22 -k AGT
+ -t 5.000000000 -s 26 -d -1 -p cbr -e 512 -c 2 -a 0 -i 24 -k AGT 
- -t 5.000000000 -s 26 -d -1 -p cbr -e 512 -c 2 -a 0 -i 24 -k AGT
h -t 5.000000000 -s 26 -d -1 -p cbr -e 512 -c 2 -a 0 -i 24 -k AGT
+ -t 5.000000000 -s 14 -d -1 -p cbr -e 512 -c 2 -a 0 -i 26 -k AGT 
- -t 5.000000000 -s 14 -d -1 -p cbr -e 512 -c 2 -a 0 -i 26 -k AGT
h -t 5.000000000 -s 14 -d -1 -p cbr -e 512 -c 2 -a 0 -i 26 -k AGT
+ -t 5.000000000 -s 29 -d -1 -p cbr -e 512 -c 2 -a 0 -i 28 -k AGT 
- -t 5.000000000 -s 29 -d -1 -p cbr -e 512 -c 2 -a 0 -i 28 -k AGT
h -t 5.000000000 -s 29 -d -1 -p cbr -e 512 -c 2 -a 0 -i 28 -k AGT
+ -t 5.000000000 -s 13 -d -1 -p cbr -e 512 -c 2 -a 0 -i 30 -k AGT 
- -t 5.000000000 -s 13 -d -1 -p cbr -e 512 -c 2 -a 0 -i 30 -k AGT
h -t 5.000000000 -s 13 -d -1 -p cbr -e 512 -c 2 -a 0 -i 30 -k AGT
+ -t 5.000091526 -s 0 -d -1 -p DSR -e 32 -c 2 -a 0 -i 21 -k RTR 
- -t 5.000091526 -s 0 -d -1 -p DSR -e 32 -c 2 -a 0 -i 21 -k RTR
h -t 5.000091526 -s 0 -d -1 -p DSR -e 32 -c 2 -a 0 -i 21 -k RTR
+ -t 5.000600629 -s 7 -d -1 -p DSR -e 32 -c 2 -a 0 -i 1 -k RTR 
- -t 5.000600629 -s 7 -d -1 -p DSR -e 32 -c 2 -a 0 -i 1 -k RTR
h -t 5.000600629 -s 7 -d -1 -p DSR -e 32 -c 2 -a 0 -i 1 -k RTR
+ -t 5.000882653 -s 23 -d -1 -p DSR -e 32 -c 2 -a 0 -i 23 -k RTR 
- -t 5.000882653 -s 23 -d -1 -p DSR -e 32 -c 2 -a 0 -i 23 -k RTR
h -t 5.000882653 -s 23 -d -1 -p DSR -e 32 -c 2 -a 0 -i 23 -k RTR
+ -t 5.001213058 -s 5 -d -1 -p DSR -e 32 -c 2 -a 0 -i 5 -k RTR 
- -t 5.001213058 -s 5 -d -1 -p DSR -e 32 -c 2 -a 0 -i 5 -k RTR
h -t 5.001213058 -s 5 -d -1 -p DSR -e 32 -c 2 -a 0 -i 5 -k RTR
+ -t 5.002828981 -s 9 -d -1 -p DSR -e 32 -c 2 -a 0 -i 15 -k RTR 
- -t 5.002828981 -s 9 -d -1 -p DSR -e 32 -c 2 -a 0 -i 15 -k RTR
h -t 5.002828981 -s 9 -d -1 -p DSR -e 32 -c 2 -a 0 -i 15 -k RTR
+ -t 5.002879745 -s 26 -d -1 -p DSR -e 32 -c 2 -a 0 -i 25 -k RTR 
- -t 5.002879745 -s 26 -d -1 -p DSR -e 32 -c 2 -a 0 -i 25 -k RTR
h -t 5.002879745 -s 26 -d -1 -p DSR -e 32 -c 2 -a 0 -i 25 -k RTR
+ -t 5.003175462 -s 6 -d -1 -p DSR -e 32 -c 2 -a 0 -i 7 -k RTR 
- -t 5.003175462 -s 6 -d -1 -p DSR -e 32 -c 2 -a 0 -i 7 -k RTR
h -t 5.003175462 -s 6 -d -1 -p DSR -e 32 -c 2 -a 0 -i 7 -k RTR
+ -t 5.003280110 -s 29 -d -1 -p DSR -e 32 -c 2 -a 0 -i 29 -k RTR 
- -t 5.003280110 -s 29 -d -1 -p DSR -e 32 -c 2 -a 0 -i 29 -k RTR
h -t 5.003280110 -s 29 -d -1 -p DSR -e 32 -c 2 -a 0 -i 29 -k RTR
+ -t 5.004906954 -s 8 -d 6 -p DSR -e 44 -c 2 -a 0 -i 36 -k RTR 
- -t 5.004906954 -s 8 -d 6 -p DSR -e 44 -c 2 -a 0 -i 36 -k RTR
h -t 5.004906954 -s 8 -d 6 -p DSR -e 44 -c 2 -a 0 -i 36 -k RTR
+ -t 5.005894741 -s 4 -d -1 -p DSR -e 32 -c 2 -a 0 -i 9 -k RTR 
- -t 5.005894741 -s 4 -d -1 -p DSR -e 32 -c 2 -a 0 -i 9 -k RTR
h -t 5.005894741 -s 4 -d -1 -p DSR -e 32 -c 2 -a 0 -i 9 -k RTR
+ -t 5.006125061 -s 14 -d -1 -p DSR -e 32 -c 2 -a 0 -i 27 -k RTR 
- -t 5.006125061 -s 14 -d -1 -p DSR -e 32 -c 2 -a 0 -i 27 -k RTR
h -t 5.006125061 -s 14 -d -1 -p DSR -e 32 -c 2 -a 0 -i 27 -k RTR
+ -t 5.006339506 -s 13 -d -1 -p DSR -e 32 -c 2 -a 0 -i 31 -k RTR 
- -t 5.006339506 -s 13 -d -1 -p DSR -e 32 -c 2 -a 0 -i 31 -k RTR
h -t 5.006339506 -s 13 -d -1 -p DSR -e 32 -c 2 -a 0 -i 31 -k RTR
+ -t 5.006569939 -s 25 -d -1 -p DSR -e 32 -c 2 -a 0 -i 3 -k RTR 
- -t 5.006569939 -s 25 -d -1 -p DSR -e 32 -c 2 -a 0 -i 3 -k RTR
h -t 5.006569939 -s 25 -d -1 -p DSR -e 32 -c 2 -a 0 -i 3 -k RTR
+ -t 5.007431755 -s 18 -d -1 -p DSR -e 32 -c 2 -a 0 -i 13 -k RTR 
- -t 5.007431755 -s 18 -d -1 -p DSR -e 32 -c 2 -a 0 -i 13 -k RTR
h -t 5.007431755 -s 18 -d -1 -p DSR -e 32 -c 2 -a 0 -i 13 -k RTR
+ -t 5.007573395 -s 17 -d -1 -p DSR -e 32 -c 2 -a 0 -i 11 -k RTR 
- -t 5.007573395 -s 17 -d -1 -p DSR -e 32 -c 2 -a 0 -i 11 -k RTR
h -t 5.007573395 -s 17 -d -1 -p DSR -e 32 -c 2 -a 0 -i 11 -k RTR
+ -t 5.008185278 -s 3 -d -1 -p DSR -e 32 -c 2 -a 0 -i 19 -k RTR 
- -t 5.008185278 -s 3 -d -1 -p DSR -e 32 -c 2 -a 0 -i 19 -k RTR
h -t 5.008185278 -s 3 -d -1 -p DSR -e 32 -c 2 -a 0 -i 19 -k RTR
+ -t 5.008482080 -s 24 -d 0 -p DSR -e 44 -c 2 -a 0 -i 32 -k RTR 
- -t 5.008482080 -s 24 -d 0 -p DSR -e 44 -c 2 -a 0 -i 32 -k RTR
h -t 5.008482080 -s 24 -d 0 -p DSR -e 44 -c 2 -a 0 -i 32 -k RTR
+ -t 5.008752460 -s 16 -d 5 -p DSR -e 44 -c 2 -a 0 -i 33 -k RTR 
- -t 5.008752460 -s 16 -d 5 -p DSR -e 44 -c 2 -a 0 -i 33 -k RTR
h -t 5.008752460 -s 16 -d 5 -p DSR -e 44 -c 2 -a 0 -i 33 -k RTR
+ -t 5.008908880 -s 22 -d -1 -p DSR -e 32 -c 2 -a 0 -i 17 -k RTR 
- -t 5.008908880 -s 22 -d -1 -p DSR -e 32 -c 2 -a 0 -i 17 -k RTR
h -t 5.008908880 -s 22 -d -1 -p DSR -e 32 -c 2 -a 0 -i 17 -k RTR
+ -t 5.009142857 -s 7 -d -1 -p cbr -e 512 -c 2 -a 0 -i 38 -k AGT 
- -t 5.009142857 -s 7 -d -1 -p cbr -e 512 -c 2 -a 0 -i 38 -k AGT
h -t 5.009142857 -s 7 -d -1 -p cbr -e 512 -c 2 -a 0 -i 38 -k AGT
+ -t 5.009142857 -s 25 -d -1 -p cbr -e 512 -c 2 -a 0 -i 40 -k AGT 
- -t 5.009142857 -s 25 -d -1 -p cbr -e 512 -c 2 -a 0 -i 40 -k AGT
h -t 5.009142857 -s 25 -d -1 -p cbr -e 512 -c 2 -a 0 -i 40 -k AGT
+ -t 5.009142857 -s 5 -d -1 -p cbr -e 512 -c 2 -a 0 -i 42 -k AGT 
- -t 5.009142857 -s 5 -d -1 -p cbr -e 512 -c 2 -a 0 -i 42 -k AGT
h -t 5.009142857 -s 5 -d -1 -p cbr -e 512 -c 2 -a 0 -i 42 -k AGT
+ -t 5.009142857 -s 6 -d -1 -p cbr -e 512 -c 2 -a 0 -i 44 -k AGT 
- -t 5.009142857 -s 6 -d -1 -p cbr -e 512 -c 2 -a 0 -i 44 -k AGT
h -t 5.009142857 -s 6 -d -1 -p cbr -e 512 -c 2 -a 0 -i 44 -k AGT
+ -t 5.009142857 -s 4 -d -1 -p cbr -e 512 -c 2 -a 0 -i 46 -k AGT 
- -t 5.009142857 -s 4 -d -1 -p cbr -e 512 -c 2 -a 0 -i 46 -k AGT
h -t 5.009142857 -s 4 -d -1 -p cbr -e 512 -c 2 -a 0 -i 46 -k AGT
+ -t 5.009142857 -s 17 -d -1 -p cbr -e 512 -c 2 -a 0 -i 48 -k AGT 
- -t 5.009142857 -s 17 -d -1 -p cbr -e 512 -c 2 -a 0 -i 48 -k AGT
h -t 5.009142857 -s 17 -d -1 -p cbr -e 512 -c 2 -a 0 -i 48 -k AGT
+ -t 5.009142857 -s 18 -d -1 -p cbr -e 512 -c 2 -a 0 -i 50 -k AGT 
- -t 5.009142857 -s 18 -d -1 -p cbr -e 512 -c 2 -a 0 -i 50 -k AGT
h -t 5.009142857 -s 18 -d -1 -p cbr -e 512 -c 2 -a 0 -i 50 -k AGT
+ -t 5.009142857 -s 9 -d -1 -p cbr -e 512 -c 2 -a 0 -i 52 -k AGT 
- -t 5.009142857 -s 9 -d -1 -p cbr -e 512 -c 2 -a 0 -i 52 -k AGT
h -t 5.009142857 -s 9 -d -1 -p cbr -e 512 -c 2 -a 0 -i 52 -k AGT
+ -t 5.009142857 -s 22 -d -1 -p cbr -e 512 -c 2 -a 0 -i 54 -k AGT 
- -t 5.009142857 -s 22 -d -1 -p cbr -e 512 -c 2 -a 0 -i 54 -k AGT
h -t 5.009142857 -s 22 -d -1 -p cbr -e 512 -c 2 -a 0 -i 54 -k AGT
+ -t 5.009142857 -s 3 -d -1 -p cbr -e 512 -c 2 -a 0 -i 56 -k AGT 
- -t 5.009142857 -s 3 -d -1 -p cbr -e 512 -c 2 -a 0 -i 56 -k AGT
h -t 5.009142857 -s 3 -d -1 -p cbr -e 512 -c 2 -a 0 -i 56 -k AGT
+ -t 5.009142857 -s 0 -d -1 -p cbr -e 512 -c 2 -a 0 -i 58 -k AGT 
- -t 5.009142857 -s 0 -d -1 -p cbr -e 512 -c 2 -a 0 -i 58 -k AGT
h -t 5.009142857 -s 0 -d -1 -p cbr -e 512 -c 2 -a 0 -i 58 -k AGT
+ -t 5.009142857 -s 23 -d -1 -p cbr -e 512 -c 2 -a 0 -i 60 -k AGT 
- -t 5.009142857 -s 23 -d -1 -p cbr -e 512 -c 2 -a 0 -i 60 -k AGT
h -t 5.009142857 -s 23 -d -1 -p cbr -e 512 -c 2 -a 0 -i 60 -k AGT
+ -t 5.009142857 -s 26 -d -1 -p cbr -e 512 -c 2 -a 0 -i 62 -k AGT 
- -t 5.009142857 -s 26 -d -1 -p cbr -e 512 -c 2 -a 0 -i 62 -k AGT
h -t 5.009142857 -s 26 -d -1 -p cbr -e 512 -c 2 -a 0 -i 62 -k AGT
+ -t 5.009142857 -s 14 -d -1 -p cbr -e 512 -c 2 -a 0 -i 64 -k AGT 
- -t 5.009142857 -s 14 -d -1 -p cbr -e 512 -c 2 -a 0 -i 64 -k AGT
h -t 5.009142857 -s 14 -d -1 -p cbr -e 512 -c 2 -a 0 -i 64 -k AGT
+ -t 5.009142857 -s 29 -d -1 -p cbr -e 512 -c 2 -a 0 -i 66 -k AGT 
- -t 5.009142857 -s 29 -d -1 -p cbr -e 512 -c 2 -a 0 -i 66 -k AGT
h -t 5.009142857 -s 29 -d -1 -p cbr -e 512 -c 2 -a 0 -i 66 -k AGT
+ -t 5.009142857 -s 13 -d -1 -p cbr -e 512 -c 2 -a 0 -i 68 -k AGT 
- -t 5.009142857 -s 13 -d -1 -p cbr -e 512 -c 2 -a 0 -i 68 -k AGT
h -t 5.009142857 -s 13 -d -1 -p cbr -e 512 -c 2 -a 0 -i 68 -k AGT
+ -t 5.011583893 -s 28 -d 23 -p DSR -e 44 -c 2 -a 0 -i 34 -k RTR 
- -t 5.011583893 -s 28 -d 23 -p DSR -e 44 -c 2 -a 0 -i 34 -k RTR
h -t 5.011583893 -s 28 -d 23 -p DSR -e 44 -c 2 -a 0 -i 34 -k RTR
+ -t 5.011860004 -s 6 -d 8 -p cbr -e 548 -c 2 -a 0 -i 6 -k RTR 
- -t 5.011860004 -s 6 -d 8 -p cbr -e 548 -c 2 -a 0 -i 6 -k RTR
h -t 5.011860004 -s 6 -d 8 -p cbr -e 548 -c 2 -a 0 -i 6 -k RTR
+ -t 5.016889298 -s 2 -d 17 -p DSR -e 44 -c 2 -a 0 -i 71 -k RTR 
- -t 5.016889298 -s 2 -d 17 -p DSR -e 44 -c 2 -a 0 -i 71 -k RTR
h -t 5.016889298 -s 2 -d 17 -p DSR -e 44 -c 2 -a 0 -i 71 -k RTR
+ -t 5.017275494 -s 31 -d 25 -p DSR -e 44 -c 2 -a 0 -i 70 -k RTR 
- -t 5.017275494 -s 31 -d 25 -p DSR -e 44 -c 2 -a 0 -i 70 -k RTR
h -t 5.017275494 -s 31 -d 25 -p DSR -e 44 -c 2 -a 0 -i 70 -k RTR
+ -t 5.018285714 -s 7 -d -1 -p cbr -e 512 -c 2 -a 0 -i 76 -k AGT 
- -t 5.018285714 -s 7 -d -1 -p cbr -e 512 -c 2 -a 0 -i 76 -k AGT
h -t 5.018285714 -s 7 -d -1 -p cbr -e 512 -c 2 -a 0 -i 76 -k AGT
+ -t 5.018285714 -s 25 -d -1 -p cbr -e 512 -c 2 -a 0 -i 78 -k AGT 
- -t 5.018285714 -s 25 -d -1 -p cbr -e 512 -c 2 -a 0 -i 78 -k AGT
h -t 5.018285714 -s 25 -d -1 -p cbr -e 512 -c 2 -a 0 -i 78 -k AGT
+ -t 5.018285714 -s 5 -d -1 -p cbr -e 512 -c 2 -a 0 -i 80 -k AGT 
- -t 5.018285714 -s 5 -d -1 -p cbr -e 512 -c 2 -a 0 -i 80 -k AGT
h -t 5.018285714 -s 5 -d -1 -p cbr -e 512 -c 2 -a 0 -i 80 -k AGT
+ -t 5.018285714 -s 6 -d -1 -p cbr -e 512 -c 2 -a 0 -i 82 -k AGT 
- -t 5.018285714 -s 6 -d -1 -p cbr -e 512 -c 2 -a 0 -i 82 -k AGT
h -t 5.018285714 -s 6 -d -1 -p cbr -e 512 -c 2 -a 0 -i 82 -k AGT
+ -t 5.018285714 -s 4 -d -1 -p cbr -e 512 -c 2 -a 0 -i 83 -k AGT 
- -t 5.018285714 -s 4 -d -1 -p cbr -e 512 -c 2 -a 0 -i 83 -k AGT
h -t 5.018285714 -s 4 -d -1 -p cbr -e 512 -c 2 -a 0 -i 83 -k AGT
+ -t 5.018285714 -s 17 -d -1 -p cbr -e 512 -c 2 -a 0 -i 85 -k AGT 
- -t 5.018285714 -s 17 -d -1 -p cbr -e 512 -c 2 -a 0 -i 85 -k AGT
h -t 5.018285714 -s 17 -d -1 -p cbr -e 512 -c 2 -a 0 -i 85 -k AGT
+ -t 5.018285714 -s 18 -d -1 -p cbr -e 512 -c 2 -a 0 -i 87 -k AGT 
- -t 5.018285714 -s 18 -d -1 -p cbr -e 512 -c 2 -a 0 -i 87 -k AGT
h -t 5.018285714 -s 18 -d -1 -p cbr -e 512 -c 2 -a 0 -i 87 -k AGT
+ -t 5.018285714 -s 9 -d -1 -p cbr -e 512 -c 2 -a 0 -i 89 -k AGT 
- -t 5.018285714 -s 9 -d -1 -p cbr -e 512 -c 2 -a 0 -i 89 -k AGT
h -t 5.018285714 -s 9 -d -1 -p cbr -e 512 -c 2 -a 0 -i 89 -k AGT
+ -t 5.018285714 -s 22 -d -1 -p cbr -e 512 -c 2 -a 0 -i 91 -k AGT 
- -t 5.018285714 -s 22 -d -1 -p cbr -e 512 -c 2 -a 0 -i 91 -k AGT
h -t 5.018285714 -s 22 -d -1 -p cbr -e 512 -c 2 -a 0 -i 91 -k AGT
+ -t 5.018285714 -s 3 -d -1 -p cbr -e 512 -c 2 -a 0 -i 93 -k AGT 
- -t 5.018285714 -s 3 -d -1 -p cbr -e 512 -c 2 -a 0 -i 93 -k AGT
h -t 5.018285714 -s 3 -d -1 -p cbr -e 512 -c 2 -a 0 -i 93 -k AGT
+ -t 5.018285714 -s 0 -d -1 -p cbr -e 512 -c 2 -a 0 -i 95 -k AGT 
- -t 5.018285714 -s 0 -d -1 -p cbr -e 512 -c 2 -a 0 -i 95 -k AGT
h -t 5.018285714 -s 0 -d -1 -p cbr -e 512 -c 2 -a 0 -i 95 -k AGT
+ -t 5.018285714 -s 23 -d -1 -p cbr -e 512 -c 2 -a 0 -i 97 -k AGT 
- -t 5.018285714 -s 23 -d -1 -p cbr -e 512 -c 2 -a 0 -i 97 -k AGT
h -t 5.018285714 -s 23 -d -1 -p cbr -e 512 -c 2 -a 0 -i 97 -k AGT
+ -t 5.018285714 -s 26 -d -1 -p cbr -e 512 -c 2 -a 0 -i 99 -k AGT 
- -t 5.018285714 -s 26 -d -1 -p cbr -e 512 -c 2 -a 0 -i 99 -k AGT
h -t 5.018285714 -s 26 -d -1 -p cbr -e 512 -c 2 -a 0 -i 99 -k AGT
+ -t 5.018285714 -s 14 -d -1 -p cbr -e 512 -c 2 -a 0 -i 101 -k AGT 
- -t 5.018285714 -s 14 -d -1 -p cbr -e 512 -c 2 -a 0 -i 101 -k AGT
h -t 5.018285714 -s 14 -d -1 -p cbr -e 512 -c 2 -a 0 -i 101 -k AGT
+ -t 5.018285714 -s 29 -d -1 -p cbr -e 512 -c 2 -a 0 -i 103 -k AGT 
- -t 5.018285714 -s 29 -d -1 -p cbr -e 512 -c 2 -a 0 -i 103 -k AGT
h -t 5.018285714 -s 29 -d -1 -p cbr -e 512 -c 2 -a 0 -i 103 -k AGT
+ -t 5.018285714 -s 13 -d -1 -p cbr -e 512 -c 2 -a 0 -i 105 -k AGT 
- -t 5.018285714 -s 13 -d -1 -p cbr -e 512 -c 2 -a 0 -i 105 -k AGT
h -t 5.018285714 -s 13 -d -1 -p cbr -e 512 -c 2 -a 0 -i 105 -k AGT
+ -t 5.018285714 -s 6 -d 8 -p cbr -e 548 -c 2 -a 0 -i 82 -k RTR 
- -t 5.018285714 -s 6 -d 8 -p cbr -e 548 -c 2 -a 0 -i 82 -k RTR
h -t 5.018285714 -s 6 -d 8 -p cbr -e 548 -c 2 -a 0 -i 82 -k RTR
r -t 5.021880542 -s 8 -d 8 -p cbr -e 512 -c 2 -a 0 -i 6 -k AGT
+ -t 5.027428571 -s 7 -d -1 -p cbr -e 512 -c 2 -a 0 -i 120 -k AGT 
- -t 5.027428571 -s 7 -d -1 -p cbr -e 512 -c 2 -a 0 -i 120 -k AGT
h -t 5.027428571 -s 7 -d -1 -p cbr -e 512 -c 2 -a 0 -i 120 -k AGT
+ -t 5.027428571 -s 25 -d -1 -p cbr -e 512 -c 2 -a 0 -i 122 -k AGT 
- -t 5.027428571 -s 25 -d -1 -p cbr -e 512 -c 2 -a 0 -i 122 -k AGT
h -t 5.027428571 -s 25 -d -1 -p cbr -e 512 -c 2 -a 0 -i 122 -k AGT
+ -t 5.027428571 -s 5 -d -1 -p cbr -e 512 -c 2 -a 0 -i 124 -k AGT 
- -t 5.027428571 -s 5 -d -1 -p cbr -e 512 -c 2 -a 0 -i 124 -k AGT
h -t 5.027428571 -s 5 -d -1 -p cbr -e 512 -c 2 -a 0 -i 124 -k AGT
+ -t 5.027428571 -s 6 -d -1 -p cbr -e 512 -c 2 -a 0 -i 126 -k AGT 
- -t 5.027428571 -s 6 -d -1 -p cbr -e 512 -c 2 -a 0 -i 126 -k AGT
h -t 5.027428571 -s 6 -d -1 -p cbr -e 512 -c 2 -a 0 -i 126 -k AGT
+ -t 5.027428571 -s 4 -d -1 -p cbr -e 512 -c 2 -a 0 -i 127 -k AGT 
- -t 5.027428571 -s 4 -d -1 -p cbr -e 512 -c 2 -a 0 -i 127 -k AGT
h -t 5.027428571 -s 4 -d -1 -p cbr -e 512 -c 2 -a 0 -i 127 -k AGT
+ -t 5.027428571 -s 17 -d -1 -p cbr -e 512 -c 2 -a 0 -i 129 -k AGT 
- -t 5.027428571 -s 17 -d -1 -p cbr -e 512 -c 2 -a 0 -i 129 -k AGT
h -t 5.027428571 -s 17 -d -1 -p cbr -e 512 -c 2 -a 0 -i 129 -k AGT
+ -t 5.027428571 -s 18 -d -1 -p cbr -e 512 -c 2 -a 0 -i 131 -k AGT 
- -t 5.027428571 -s 18 -d -1 -p cbr -e 512 -c 2 -a 0 -i 131 -k AGT
h -t 5.027428571 -s 18 -d -1 -p cbr -e 512 -c 2 -a 0 -i 131 -k AGT
+ -t 5.027428571 -s 9 -d -1 -p cbr -e 512 -c 2 -a 0 -i 133 -k AGT 
- -t 5.027428571 -s 9 -d -1 -p cbr -e 512 -c 2 -a 0 -i 133 -k AGT
h -t 5.027428571 -s 9 -d -1 -p cbr -e 512 -c 2 -a 0 -i 133 -k AGT
+ -t 5.027428571 -s 22 -d -1 -p cbr -e 512 -c 2 -a 0 -i 135 -k AGT 
- -t 5.027428571 -s 22 -d -1 -p cbr -e 512 -c 2 -a 0 -i 135 -k AGT
h -t 5.027428571 -s 22 -d -1 -p cbr -e 512 -c 2 -a 0 -i 135 -k AGT
+ -t 5.027428571 -s 3 -d -1 -p cbr -e 512 -c 2 -a 0 -i 137 -k AGT 
- -t 5.027428571 -s 3 -d -1 -p cbr -e 512 -c 2 -a 0 -i 137 -k AGT
h -t 5.027428571 -s 3 -d -1 -p cbr -e 512 -c 2 -a 0 -i 137 -k AGT
+ -t 5.027428571 -s 0 -d -1 -p cbr -e 512 -c 2 -a 0 -i 139 -k AGT 
- -t 5.027428571 -s 0 -d -1 -p cbr -e 512 -c 2 -a 0 -i 139 -k AGT
h -t 5.027428571 -s 0 -d -1 -p cbr -e 512 -c 2 -a 0 -i 139 -k AGT
+ -t 5.027428571 -s 23 -d -1 -p cbr -e 512 -c 2 -a 0 -i 141 -k AGT 
- -t 5.027428571 -s 23 -d -1 -p cbr -e 512 -c 2 -a 0 -i 141 -k AGT
h -t 5.027428571 -s 23 -d -1 -p cbr -e 512 -c 2 -a 0 -i 141 -k AGT
+ -t 5.027428571 -s 26 -d -1 -p cbr -e 512 -c 2 -a 0 -i 143 -k AGT 
- -t 5.027428571 -s 26 -d -1 -p cbr -e 512 -c 2 -a 0 -i 143 -k AGT
h -t 5.027428571 -s 26 -d -1 -p cbr -e 512 -c 2 -a 0 -i 143 -k AGT
+ -t 5.027428571 -s 14 -d -1 -p cbr -e 512 -c 2 -a 0 -i 145 -k AGT 
- -t 5.027428571 -s 14 -d -1 -p cbr -e 512 -c 2 -a 0 -i 145 -k AGT
h -t 5.027428571 -s 14 -d -1 -p cbr -e 512 -c 2 -a 0 -i 145 -k AGT
+ -t 5.027428571 -s 29 -d -1 -p cbr -e 512 -c 2 -a 0 -i 147 -k AGT 
- -t 5.027428571 -s 29 -d -1 -p cbr -e 512 -c 2 -a 0 -i 147 -k AGT
h -t 5.027428571 -s 29 -d -1 -p cbr -e 512 -c 2 -a 0 -i 147 -k AGT
+ -t 5.027428571 -s 13 -d -1 -p cbr -e 512 -c 2 -a 0 -i 149 -k AGT 
- -t 5.027428571 -s 13 -d -1 -p cbr -e 512 -c 2 -a 0 -i 149 -k AGT
h -t 5.027428571 -s 13 -d -1 -p cbr -e 512 -c 2 -a 0 -i 149 -k AGT
+ -t 5.027428571 -s 6 -d 8 -p cbr -e 532 -c 2 -a 0 -i 126 -k RTR 
- -t 5.027428571 -s 6 -d 8 -p cbr -e 532 -c 2 -a 0 -i 126 -k RTR
h -t 5.027428571 -s 6 -d 8 -p cbr -e 532 -c 2 -a 0 -i 126 -k RTR
+ -t 5.029323410 -s 21 -d 4 -p DSR -e 44 -c 2 -a 0 -i 116 -k RTR 
- -t 5.029323410 -s 21 -d 4 -p DSR -e 44 -c 2 -a 0 -i 116 -k RTR
h -t 5.029323410 -s 21 -d 4 -p DSR -e 44 -c 2 -a 0 -i 116 -k RTR
r -t 5.032197348 -s 8 -d 8 -p cbr -e 512 -c 2 -a 0 -i 82 -k AGT
+ -t 5.036571429 -s 7 -d -1 -p cbr -e 512 -c 2 -a 0 -i 159 -k AGT 
- -t 5.036571429 -s 7 -d -1 -p cbr -e 512 -c 2 -a 0 -i 159 -k AGT
h -t 5.036571429 -s 7 -d -1 -p cbr -e 512 -c 2 -a 0 -i 159 -k AGT
+ -t 5.036571429 -s 25 -d -1 -p cbr -e 512 -c 2 -a 0 -i 161 -k AGT 
- -t 5.036571429 -s 25 -d -1 -p cbr -e 512 -c 2 -a 0 -i 161 -k AGT
h -t 5.036571429 -s 25 -d -1 -p cbr -e 512 -c 2 -a 0 -i 161 -k AGT
+ -t 5.036571429 -s 5 -d -1 -p cbr -e 512 -c 2 -a 0 -i 163 -k AGT 
- -t 5.036571429 -s 5 -d -1 -p cbr -e 512 -c 2 -a 0 -i 163 -k AGT
h -t 5.036571429 -s 5 -d -1 -p cbr -e 512 -c 2 -a 0 -i 163 -k AGT
+ -t 5.036571429 -s 6 -d -1 -p cbr -e 512 -c 2 -a 0 -i 165 -k AGT 
- -t 5.036571429 -s 6 -d -1 -p cbr -e 512 -c 2 -a 0 -i 165 -k AGT
h -t 5.036571429 -s 6 -d -1 -p cbr -e 512 -c 2 -a 0 -i 165 -k AGT
+ -t 5.036571429 -s 4 -d -1 -p cbr -e 512 -c 2 -a 0 -i 166 -k AGT 
- -t 5.036571429 -s 4 -d -1 -p cbr -e 512 -c 2 -a 0 -i 166 -k AGT
h -t 5.036571429 -s 4 -d -1 -p cbr -e 512 -c 2 -a 0 -i 166 -k AGT
+ -t 5.036571429 -s 17 -d -1 -p cbr -e 512 -c 2 -a 0 -i 168 -k AGT 
- -t 5.036571429 -s 17 -d -1 -p cbr -e 512 -c 2 -a 0 -i 168 -k AGT
h -t 5.036571429 -s 17 -d -1 -p cbr -e 512 -c 2 -a 0 -i 168 -k AGT
+ -t 5.036571429 -s 18 -d -1 -p cbr -e 512 -c 2 -a 0 -i 170 -k AGT 
- -t 5.036571429 -s 18 -d -1 -p cbr -e 512 -c 2 -a 0 -i 170 -k AGT
h -t 5.036571429 -s 18 -d -1 -p cbr -e 512 -c 2 -a 0 -i 170 -k AGT
+ -t 5.036571429 -s 9 -d -1 -p cbr -e 512 -c 2 -a 0 -i 172 -k AGT 
- -t 5.036571429 -s 9 -d -1 -p cbr -e 512 -c 2 -a 0 -i 172 -k AGT
h -t 5.036571429 -s 9 -d -1 -p cbr -e 512 -c 2 -a 0 -i 172 -k AGT
+ -t 5.036571429 -s 22 -d -1 -p cbr -e 512 -c 2 -a 0 -i 174 -k AGT 
- -t 5.036571429 -s 22 -d -1 -p cbr -e 512 -c 2 -a 0 -i 174 -k AGT
h -t 5.036571429 -s 22 -d -1 -p cbr -e 512 -c 2 -a 0 -i 174 -k AGT
+ -t 5.036571429 -s 3 -d -1 -p cbr -e 512 -c 2 -a 0 -i 176 -k AGT 
- -t 5.036571429 -s 3 -d -1 -p cbr -e 512 -c 2 -a 0 -i 176 -k AGT
h -t 5.036571429 -s 3 -d -1 -p cbr -e 512 -c 2 -a 0 -i 176 -k AGT
+ -t 5.036571429 -s 0 -d -1 -p cbr -e 512 -c 2 -a 0 -i 178 -k AGT 
- -t 5.036571429 -s 0 -d -1 -p cbr -e 512 -c 2 -a 0 -i 178 -k AGT
h -t 5.036571429 -s 0 -d -1 -p cbr -e 512 -c 2 -a 0 -i 178 -k AGT
+ -t 5.036571429 -s 23 -d -1 -p cbr -e 512 -c 2 -a 0 -i 180 -k AGT 
- -t 5.036571429 -s 23 -d -1 -p cbr -e 512 -c 2 -a 0 -i 180 -k AGT
h -t 5.036571429 -s 23 -d -1 -p cbr -e 512 -c 2 -a 0 -i 180 -k AGT
+ -t 5.036571429 -s 26 -d -1 -p cbr -e 512 -c 2 -a 0 -i 182 -k AGT 
- -t 5.036571429 -s 26 -d -1 -p cbr -e 512 -c 2 -a 0 -i 182 -k AGT
h -t 5.036571429 -s 26 -d -1 -p cbr -e 512 -c 2 -a 0 -i 182 -k AGT
+ -t 5.036571429 -s 14 -d -1 -p cbr -e 512 -c 2 -a 0 -i 184 -k AGT 
- -t 5.036571429 -s 14 -d -1 -p cbr -e 512 -c 2 -a 0 -i 184 -k AGT
h -t 5.036571429 -s 14 -d -1 -p cbr -e 512 -c 2 -a 0 -i 184 -k AGT
+ -t 5.036571429 -s 29 -d -1 -p cbr -e 512 -c 2 -a 0 -i 186 -k AGT 
- -t 5.036571429 -s 29 -d -1 -p cbr -e 512 -c 2 -a 0 -i 186 -k AGT
h -t 5.036571429 -s 29 -d -1 -p cbr -e 512 -c 2 -a 0 -i 186 -k AGT
+ -t 5.036571429 -s 13 -d -1 -p cbr -e 512 -c 2 -a 0 -i 188 -k AGT 
- -t 5.036571429 -s 13 -d -1 -p cbr -e 512 -c 2 -a 0 -i 188 -k AGT
h -t 5.036571429 -s 13 -d -1 -p cbr -e 512 -c 2 -a 0 -i 188 -k AGT
+ -t 5.036571429 -s 6 -d 8 -p cbr -e 532 -c 2 -a 0 -i 165 -k RTR 
- -t 5.036571429 -s 6 -d 8 -p cbr -e 532 -c 2 -a 0 -i 165 -k RTR
h -t 5.036571429 -s 6 -d 8 -p cbr -e 532 -c 2 -a 0 -i 165 -k RTR
+ -t 5.037179306 -s 4 -d -1 -p DSR -e 32 -c 2 -a 0 -i 151 -k RTR 
- -t 5.037179306 -s 4 -d -1 -p DSR -e 32 -c 2 -a 0 -i 151 -k RTR
h -t 5.037179306 -s 4 -d -1 -p DSR -e 32 -c 2 -a 0 -i 151 -k RTR
+ -t 5.038881672 -s 26 -d -1 -p DSR -e 32 -c 2 -a 0 -i 183 -k RTR 
- -t 5.038881672 -s 26 -d -1 -p DSR -e 32 -c 2 -a 0 -i 183 -k RTR
h -t 5.038881672 -s 26 -d -1 -p DSR -e 32 -c 2 -a 0 -i 183 -k RTR
+ -t 5.039039430 -s 13 -d -1 -p DSR -e 32 -c 2 -a 0 -i 189 -k RTR 
- -t 5.039039430 -s 13 -d -1 -p DSR -e 32 -c 2 -a 0 -i 189 -k RTR
h -t 5.039039430 -s 13 -d -1 -p DSR -e 32 -c 2 -a 0 -i 189 -k RTR
+ -t 5.039464670 -s 9 -d -1 -p DSR -e 32 -c 2 -a 0 -i 173 -k RTR 
- -t 5.039464670 -s 9 -d -1 -p DSR -e 32 -c 2 -a 0 -i 173 -k RTR
h -t 5.039464670 -s 9 -d -1 -p DSR -e 32 -c 2 -a 0 -i 173 -k RTR
+ -t 5.039614697 -s 0 -d -1 -p DSR -e 32 -c 2 -a 0 -i 179 -k RTR 
- -t 5.039614697 -s 0 -d -1 -p DSR -e 32 -c 2 -a 0 -i 179 -k RTR
h -t 5.039614697 -s 0 -d -1 -p DSR -e 32 -c 2 -a 0 -i 179 -k RTR
r -t 5.039868103 -s 8 -d 8 -p cbr -e 512 -c 2 -a 0 -i 126 -k AGT
+ -t 5.040567389 -s 22 -d -1 -p DSR -e 32 -c 2 -a 0 -i 175 -k RTR 
- -t 5.040567389 -s 22 -d -1 -p DSR -e 32 -c 2 -a 0 -i 175 -k RTR
h -t 5.040567389 -s 22 -d -1 -p DSR -e 32 -c 2 -a 0 -i 175 -k RTR
+ -t 5.040716031 -s 14 -d -1 -p DSR -e 32 -c 2 -a 0 -i 185 -k RTR 
- -t 5.040716031 -s 14 -d -1 -p DSR -e 32 -c 2 -a 0 -i 185 -k RTR
h -t 5.040716031 -s 14 -d -1 -p DSR -e 32 -c 2 -a 0 -i 185 -k RTR
+ -t 5.041076237 -s 29 -d -1 -p DSR -e 32 -c 2 -a 0 -i 187 -k RTR 
- -t 5.041076237 -s 29 -d -1 -p DSR -e 32 -c 2 -a 0 -i 187 -k RTR
h -t 5.041076237 -s 29 -d -1 -p DSR -e 32 -c 2 -a 0 -i 187 -k RTR
+ -t 5.041552517 -s 17 -d -1 -p DSR -e 32 -c 2 -a 0 -i 169 -k RTR 
- -t 5.041552517 -s 17 -d -1 -p DSR -e 32 -c 2 -a 0 -i 169 -k RTR
h -t 5.041552517 -s 17 -d -1 -p DSR -e 32 -c 2 -a 0 -i 169 -k RTR
+ -t 5.041860004 -s 6 -d 8 -p cbr -e 548 -c 2 -a 0 -i 44 -k RTR 
- -t 5.041860004 -s 6 -d 8 -p cbr -e 548 -c 2 -a 0 -i 44 -k RTR
h -t 5.041860004 -s 6 -d 8 -p cbr -e 548 -c 2 -a 0 -i 44 -k RTR
+ -t 5.041988029 -s 27 -d -1 -p DSR -e 48 -c 2 -a 0 -i 183 -k RTR 
- -t 5.041988029 -s 27 -d -1 -p DSR -e 48 -c 2 -a 0 -i 183 -k RTR
h -t 5.041988029 -s 27 -d -1 -p DSR -e 48 -c 2 -a 0 -i 183 -k RTR
+ -t 5.042042849 -s 25 -d -1 -p DSR -e 48 -c 2 -a 0 -i 183 -k RTR 
- -t 5.042042849 -s 25 -d -1 -p DSR -e 48 -c 2 -a 0 -i 183 -k RTR
h -t 5.042042849 -s 25 -d -1 -p DSR -e 48 -c 2 -a 0 -i 183 -k RTR
+ -t 5.042058462 -s 15 -d -1 -p DSR -e 48 -c 2 -a 0 -i 183 -k RTR 
- -t 5.042058462 -s 15 -d -1 -p DSR -e 48 -c 2 -a 0 -i 183 -k RTR
h -t 5.042058462 -s 15 -d -1 -p DSR -e 48 -c 2 -a 0 -i 183 -k RTR
+ -t 5.042623620 -s 2 -d -1 -p DSR -e 48 -c 2 -a 0 -i 183 -k RTR 
- -t 5.042623620 -s 2 -d -1 -p DSR -e 48 -c 2 -a 0 -i 183 -k RTR
h -t 5.042623620 -s 2 -d -1 -p DSR -e 48 -c 2 -a 0 -i 183 -k RTR