n -t * -s 0  -x 474 -y 452 -Z 0 -z 20  -v circle -c black
n -t * -s 1  -x 467 -y 475 -Z 0 -z 20  -v circle -c black
n -t * -s 2  -x 331 -y 251 -Z 0 -z 20  -v circle -c black
n -t * -s 3  -x 260 -y 87 -Z 0 -z 20  -v circle -c black
n -t * -s 4  -x 14 -y 6 -Z 0 -z 20  -v circle -c black
n -t * -s 5  -x 37 -y 195 -Z 0 -z 20  -v circle -c black
n -t * -s 6  -x 71 -y 492 -Z 0 -z 20  -v circle -c black
n -t * -s 7  -x 418 -y 484 -Z 0 -z 20  -v circle -c black
n -t * -s 8  -x 40 -y 93 -Z 0 -z 20  -v circle -c black
n -t * -s 9  -x 75 -y 3 -Z 0 -z 20  -v circle -c black
n -t * -s 10  -x 439 -y 423 -Z 0 -z 20  -v circle -c black
n -t * -s 11  -x 372 -y 245 -Z 0 -z 20  -v circle -c black
n -t * -s 12  -x 130 -y 93 -Z 0 -z 20  -v circle -c black
n -t * -s 13  -x 432 -y 397 -Z 0 -z 20  -v circle -c black
n -t * -s 14  -x 402 -y 495 -Z 0 -z 20  -v circle -c black
n -t * -s 15  -x 144 -y 84 -Z 0 -z 20  -v circle -c black
n -t * -s 16  -x 172 -y 321 -Z 0 -z 20  -v circle -c black
n -t * -s 17  -x 12 -y 78 -Z 0 -z 20  -v circle -c black
n -t * -s 18  -x 262 -y 383 -Z 0 -z 20  -v circle -c black
n -t * -s 19  -x 153 -y 409 -Z 0 -z 20  -v circle -c black
n -t * -s 20  -x 44 -y 382 -Z 0 -z 20  -v circle -c black
n -t * -s 21  -x 53 -y 71 -Z 0 -z 20  -v circle -c black
n -t * -s 22  -x 216 -y 38 -Z 0 -z 20  -v circle -c black
n -t * -s 23  -x 388 -y 475 -Z 0 -z 20  -v circle -c black
n -t * -s 24  -x 264 -y 34 -Z 0 -z 20  -v circle -c black
n -t * -s 25  -x 62 -y 253 -Z 0 -z 20  -v circle -c black
n -t * -s 26  -x 448 -y 195 -Z 0 -z 20  -v circle -c black
n -t * -s 27  -x 374 -y 431 -Z 0 -z 20  -v circle -c black
n -t * -s 28  -x 476 -y 416 -Z 0 -z 20  -v circle -c black
n -t * -s 29  -x 383 -y 263 -Z 0 -z 20  -v circle -c black
n -t * -s 30  -x 224 -y 111 -Z 0 -z 20  -v circle -c black
n -t * -s 31  -x 23 -y 391 -Z 0 -z 20  -v circle -c black
V -t * -v 1.0a5 -a 0
W -t * -x 500 -y 500
A -t * -n 1 -p 0 -o 0x7fffffff -c 30 -a 1
A -t * -h 1 -m 1073741823 -s 0
n -t 0 -s 0 -S DLABEL -l "Source01" -L ""
n -t 0 -s 1 -S DLABEL -l "Source02" -L ""
n -t 0 -s 2 -S DLABEL -l "Sink01" -L ""
n -t 0 -s 3 -S DLABEL -l "Sink02" -L ""
n -t 0 -s 5 -S DLABEL -l "N5" -L ""
n -t 0 -s 6 -S DLABEL -l "N6" -L ""
n -t 0 -s 7 -S DLABEL -l "N7" -L ""
n -t 0 -s 8 -S DLABEL -l "N8" -L ""
n -t 0 -s 9 -S DLABEL -l "N9" -L ""
n -t 0 -s 10 -S DLABEL -l "N10" -L ""
n -t 0 -s 11 -S DLABEL -l "N11" -L ""
n -t 0 -s 12 -S DLABEL -l "N12" -L ""
n -t 0 -s 13 -S DLABEL -l "N13" -L ""
n -t 0 -s 14 -S DLABEL -l "N14" -L ""
n -t 0 -s 15 -S DLABEL -l "N15" -L ""
n -t 0 -s 16 -S DLABEL -l "N16" -L ""
n -t 0 -s 17 -S DLABEL -l "N17" -L ""
n -t 0 -s 18 -S DLABEL -l "N18" -L ""
n -t 0 -s 19 -S DLABEL -l "N19" -L ""
n -t 0 -s 20 -S DLABEL -l "N20" -L ""
n -t 0 -s 21 -S DLABEL -l "N21" -L ""
n -t 0 -s 22 -S DLABEL -l "N22" -L ""
n -t 0 -s 23 -S DLABEL -l "N23" -L ""
n -t 0 -s 24 -S DLABEL -l "N24" -L ""
n -t 0 -s 25 -S DLABEL -l "N25" -L ""
n -t 0 -s 26 -S DLABEL -l "N26" -L ""
n -t 0 -s 27 -S DLABEL -l "N27" -L ""
n -t 0 -s 28 -S DLABEL -l "N28" -L ""
n -t 0 -s 29 -S DLABEL -l "N29" -L ""
n -t 0 -s 30 -S DLABEL -l "N30" -L ""
n -t 0 -s 31 -S DLABEL -l "N31" -L ""
n -t 5.000000 -s 0 -x 474.000000 -y 452.000000 -U -5.269402 -V -4.607971 -T 45.356187
n -t 5.000000 -s 1 -x 467.000000 -y 475.000000 -U -2.144910 -V -6.663285 -T 56.878854
n -t 5.000000 -s 2 -x 331.000000 -y 251.000000 -U 6.145269 -V 3.351965 -T 7.159979
n -t 5.000000 -s 3 -x 260.000000 -y 87.000000 -U -0.159503 -V 6.998183 -T 50.155879
n -t 5.000000 -s 4 -x 14.000000 -y 6.000000 -U 6.620625 -V 2.273176 -T 35.193054
n -t 5.000000 -s 5 -x 37.000000 -y 195.000000 -U 5.410190 -V 4.441829 -T 47.502954
n -t 5.000000 -s 6 -x 71.000000 -y 492.000000 -U 0.000000 -V -7.000000 -T 31.000000
n -t 5.000000 -s 7 -x 418.000000 -y 484.000000 -U -6.309696 -V -3.031128 -T 32.331194
n -t 5.000000 -s 8 -x 40.000000 -y 93.000000 -U 6.998562 -V 0.141863 -T 63.441601
n -t 5.000000 -s 9 -x 75.000000 -y 3.000000 -U 6.753716 -V 1.840468 -T 62.484120
n -t 5.000000 -s 10 -x 439.000000 -y 423.000000 -U -4.704502 -V -5.183403 -T 35.497916
n -t 5.000000 -s 11 -x 372.000000 -y 245.000000 -U -5.527083 -V 4.295504 -T 33.290619
n -t 5.000000 -s 12 -x 130.000000 -y 93.000000 -U -6.310661 -V 3.029117 -T 11.884650
n -t 5.000000 -s 13 -x 432.000000 -y 397.000000 -U -6.800383 -V -1.659755 -T 43.379907
n -t 5.000000 -s 14 -x 402.000000 -y 495.000000 -U -5.313824 -V -4.556673 -T 72.640715
n -t 5.000000 -s 15 -x 144.000000 -y 84.000000 -U 4.259021 -V 5.555245 -T 70.203930
n -t 5.000000 -s 16 -x 172.000000 -y 321.000000 -U -4.200000 -V 5.600000 -T 27.857143
n -t 5.000000 -s 17 -x 12.000000 -y 78.000000 -U -0.204293 -V 6.997018 -T 39.159538
n -t 5.000000 -s 18 -x 262.000000 -y 383.000000 -U 6.499337 -V -2.599735 -T 33.080298
n -t 5.000000 -s 19 -x 153.000000 -y 409.000000 -U 6.904757 -V 1.150793 -T 41.710372
n -t 5.000000 -s 20 -x 44.000000 -y 382.000000 -U 6.996009 -V -0.236352 -T 42.309839
n -t 5.000000 -s 21 -x 53.000000 -y 71.000000 -U 6.936666 -V 0.939503 -T 63.863534
n -t 5.000000 -s 22 -x 216.000000 -y 38.000000 -U -5.172691 -V 4.716277 -T 32.864906
n -t 5.000000 -s 23 -x 388.000000 -y 475.000000 -U -5.284909 -V -4.590179 -T 40.303441
n -t 5.000000 -s 24 -x 264.000000 -y 34.000000 -U 6.441860 -V 2.739059 -T 19.714803
n -t 5.000000 -s 25 -x 62.000000 -y 253.000000 -U 4.514661 -V -5.349564 -T 32.339084
n -t 5.000000 -s 26 -x 448.000000 -y 195.000000 -U -5.783079 -V -3.944109 -T 41.327463
n -t 5.000000 -s 27 -x 374.000000 -y 431.000000 -U -6.999361 -V 0.094586 -T 31.717181
n -t 5.000000 -s 28 -x 476.000000 -y 416.000000 -U -6.077702 -V -3.472973 -T 64.498062
n -t 5.000000 -s 29 -x 383.000000 -y 263.000000 -U -5.753202 -V 3.987564 -T 50.406713
n -t 5.000000 -s 30 -x 224.000000 -y 111.000000 -U -3.536254 -V 6.041101 -T 47.507894
n -t 5.000000 -s 31 -x 23.000000 -y 391.000000 -U -0.893223 -V -6.942777 -T 24.629914
+ -t 5.000000000 -s 7 -d -1 -p cbr -e 512 -c 2 -a 0 -i 0 -k AGT 
- -t 5.000000000 -s 7 -d -1 -p cbr -e 512 -c 2 -a 0 -i 0 -k AGT
h -t 5.000000000 -s 7 -d -1 -p cbr -e 512 -c 2 -a 0 -i 0 -k AGT
+ -t 5.000000000 -s 25 -d -1 -p cbr -e 512 -c 2 -a 0 -i 2 -k AGT 
- -t 5.000000000 -s 25 -d -1 -p cbr -e 512 -c 2 -a 0 -i 2 -k AGT
h -t 5.000000000 -s 25 -d -1 -p cbr -e 512 -c 2 -a 0 -i 2 -k AGT
+ -t 5.000000000 -s 5 -d -1 -p cbr -e 512 -c 2 -a 0 -i 4 -k AGT 
- -t 5.000000000 -s 5 -d -1 -p cbr -e 512 -c 2 -a 0 -i 4 -k AGT
h -t 5.000000000 -s 5 -d -1 -p cbr -e 512 -c 2 -a 0 -i 4 -k AGT
+ -t 5.000000000 -s 6 -d -1 -p cbr -e 512 -c 2 -a 0 -i 6 -k AGT 
- -t 5.000000000 -s 6 -d -1 -p cbr -e 512 -c 2 -a 0 -i 6 -k AGT
h -t 5.000000000 -s 6 -d -1 -p cbr -e 512 -c 2 -a 0 -i 6 -k AGT
+ -t 5.000000000 -s 4 -d -1 -p cbr -e 512 -c 2 -a 0 -i 8 -k AGT 
- -t 5.000000000 -s 4 -d -1 -p cbr -e 512 -c 2 -a 0 -i 8 -k AGT
h -t 5.000000000 -s 4 -d -1 -p cbr -e 512 -c 2 -a 0 -i 8 -k AGT
+ -t 5.000000000 -s 17 -d -1 -p cbr -e 512 -c 2 -a 0 -i 10 -k AGT 
- -t 5.000000000 -s 17 -d -1 -p cbr -e 512 -c 2 -a 0 -i 10 -k AGT
h -t 5.000000000 -s 17 -d -1 -p cbr -e 512 -c 2 -a 0 -i 10 -k AGT
+ -t 5.000000000 -s 18 -d -1 -p cbr -e 512 -c 2 -a 0 -i 12 -k AGT 
- -t 5.000000000 -s 18 -d -1 -p cbr -e 512 -c 2 -a 0 -i 12 -k AGT
h -t 5.000000000 -s 18 -d -1 -p cbr -e 512 -c 2 -a 0 -i 12 -k AGT
+ -t 5.000000000 -s 9 -d -1 -p cbr -e 512 -c 2 -a 0 -i 14 -k AGT 
- -t 5.000000000 -s 9 -d -1 -p cbr -e 512 -c 2 -a 0 -i 14 -k AGT
h -t 5.000000000 -s 9 -d -1 -p cbr -e 512 -c 2 -a 0 -i 14 -k AGT
+ -t 5.000000000 -s 22 -d -1 -p cbr -e 512 -c 2 -a 0 -i 16 -k AGT 
- -t 5.000000000 -s 22 -d -1 -p cbr -e 512 -c 2 -a 0 -i 16 -k AGT
h -t 5.000000000 -s 22 -d -1 -p cbr -e 512 -c 2 -a 0 -i 16 -k AGT
+ -t 5.000000000 -s 3 -d -1 -p cbr -e 512 -c 2 -a 0 -i 18 -k AGT 
- -t 5.000000000 -s 3 -d -1 -p cbr -e 512 -c 2 -a 0 -i 18 -k AGT
h -t 5.000000000 -s 3 -d -1 -p cbr -e 512 -c 2 -a 0 -i 18 -k AGT
+ -t 5.000000000 -s 0 -d -1 -p cbr -e 512 -c 2 -a 0 -i 20 -k AGT 
- -t 5.000000000 -s 0 -d -1 -p cbr -e 512 -c 2 -a 0 -i 20 -k AGT
h -t 5.000000000 -s 0 -d -1 -p cbr -e 512 -c 2 -a 0 -i 20 -k AGT
+ -t 5.000000000 -s 23 -d -1 -p cbr -e 512 -c 2 -a 0 -i 22 -k AGT 
- -t 5.000000000 -s 23 -d -1 -p cbr -e 512 -c 2 -a 0 -i 22 -k AGT
h -t 5.000000000 -s 23 -d -1 -p cbr -e 512 -c 2 -a 0 -i 22 -k AGT
+ -t 5.000000000 -s 26 -d -1 -p cbr -e 512 -c 2 -a 0 -i 24 -k AGT 
- -t 5.000000000 -s 26 -d -1 -p cbr -e 512 -c 2 -a 0 -i 24 -k AGT
h -t 5.000000000 -s 26 -d -1 -p cbr -e 512 -c 2 -a 0 -i 24 -k AGT
+ -t 5.000000000 -s 14 -d -1 -p cbr -e 512 -c 2 -a 0 -i 26 -k AGT 
- -t 5.000000000 -s 14 -d -1 -p cbr -e 512 -c 2 -a 0 -i 26 -k AGT
h -t 5.000000000 -s 14 -d -1 -p cbr -e 512 -c 2 -a 0 -i 26 -k AGT
+ -t 5.000000000 -s 29 -d -1 -p cbr -e 512 -c 2 -a 0 -i 28 -k AGT 
- -t 5.000000000 -s 29 -d -1 -p cbr -e 512 -c 2 -a 0 -i 28 -k AGT
h -t 5.000000000 -s 29 -d -1 -p cbr -e 512 -c 2 -a 0 -i 28 -k AGT
+ -t 5.000000000 -s 13 -d -1 -p cbr -e 512 -c 2 -a 0 -i 30 -k AGT 
- -t 5.000000000 -s 13 -d -1 -p cbr -e 512 -c 2 -a 0 -i 30 -k AGT
h -t 5.000000000 -s 13 -d -1 -p cbr -e 512 -c 2 -a 0 -i 30 -k AGT
+ -t 5.000091526 -s 0 -d -1 -p DSR -e 32 -c 2 -a 0 -i 21 -k RTR 
- -t 5.000091526 -s 0 -d -1 -p DSR -e 32 -c 2 -a 0 -i 21 -k RTR
h -t 5.000091526 -s 0 -d -1 -p DSR -e 32 -c 2 -a 0 -i 21 -k RTR
+ -t 5.000600629 -s 7 -d -1 -p DSR -e 32 -c 2 -a 0 -i 1 -k RTR 
- -t 5.000600629 -s 7 -d -1 -p DSR -e 32 -c 2 -a 0 -i 1 -k RTR
h -t 5.000600629 -s 7 -d -1 -p DSR -e 32 -c 2 -a 0 -i 1 -k RTR
+ -t 5.000882653 -s 23 -d -1 -p DSR -e 32 -c 2 -a 0 -i 23 -k RTR 
- -t 5.000882653 -s 23 -d -1 -p DSR -e 32 -c 2 -a 0 -i 23 -k RTR
h -t 5.000882653 -s 23 -d -1 -p DSR -e 32 -c 2 -a 0 -i 23 -k RTR
+ -t 5.001213058 -s 5 -d -1 -p DSR -e 32 -c 2 -a 0 -i 5 -k RTR 
- -t 5.001213058 -s 5 -d -1 -p DSR -e 32 -c 2 -a 0 -i 5 -k RTR
h -t 5.001213058 -s 5 -d -1 -p DSR -e 32 -c 2 -a 0 -i 5 -k RTR
+ -t 5.002828981 -s 9 -d -1 -p DSR -e 32 -c 2 -a 0 -i 15 -k RTR 
- -t 5.002828981 -s 9 -d -1 -p DSR -e 32 -c 2 -a 0 -i 15 -k RTR
h -t 5.002828981 -s 9 -d -1 -p DSR -e 32 -c 2 -a 0 -i 15 -k RTR
+ -t 5.002879745 -s 26 -d -1 -p DSR -e 32 -c 2 -a 0 -i 25 -k RTR 
- -t 5.002879745 -s 26 -d -1 -p DSR -e 32 -c 2 -a 0 -i 25 -k RTR
h -t 5.002879745 -s 26 -d -1 -p DSR -e 32 -c 2 -a 0 -i 25 -k RTR
+ -t 5.003175462 -s 6 -d -1 -p DSR -e 32 -c 2 -a 0 -i 7 -k RTR 
- -t 5.003175462 -s 6 -d -1 -p DSR -e 32 -c 2 -a 0 -i 7 -k RTR
h -t 5.003175462 -s 6 -d -1 -p DSR -e 32 -c 2 -a 0 -i 7 -k RTR
+ -t 5.003280110 -s 29 -d -1 -p DSR -e 32 -c 2 -a 0 -i 29 -k RTR 
- -t 5.003280110 -s 29 -d -1 -p DSR -e 32 -c 2 -a 0 -i 29 -k RTR
h -t 5.003280110 -s 29 -d -1 -p DSR -e 32 -c 2 -a 0 -i 29 -k RTR
+ -t 5.005894741 -s 4 -d -1 -p DSR -e 32 -c 2 -a 0 -i 9 -k RTR 
- -t 5.005894741 -s 4 -d -1 -p DSR -e 32 -c 2 -a 0 -i 9 -k RTR
h -t 5.005894741 -s 4 -d -1 -p DSR -e 32 -c 2 -a 0 -i 9 -k RTR
+ -t 5.006125061 -s 14 -d -1 -p DSR -e 32 -c 2 -a 0 -i 27 -k RTR 
- -t 5.006125061 -s 14 -d -1 -p DSR -e 32 -c 2 -a 0 -i 27 -k RTR
h -t 5.006125061 -s 14 -d -1 -p DSR -e 32 -c 2 -a 0 -i 27 -k RTR
+ -t 5.006339506 -s 13 -d -1 -p DSR -e 32 -c 2 -a 0 -i 31 -k RTR 
- -t 5.006339506 -s 13 -d -1 -p DSR -e 32 -c 2 -a 0 -i 31 -k RTR
h -t 5.006339506 -s 13 -d -1 -p DSR -e 32 -c 2 -a 0 -i 31 -k RTR
+ -t 5.006569939 -s 25 -d -1 -p DSR -e 32 -c 2 -a 0 -i 3 -k RTR 
- -t 5.006569939 -s 25 -d -1 -p DSR -e 32 -c 2 -a 0 -i 3 -k RTR
h -t 5.006569939 -s 25 -d -1 -p DSR -e 32 -c 2 -a 0 -i 3 -k RTR
+ -t 5.007431755 -s 18 -d -1 -p DSR -e 32 -c 2 -a 0 -i 13 -k RTR 
- -t 5.007431755 -s 18 -d -1 -p DSR -e 32 -c 2 -a 0 -i 13 -k RTR
h -t 5.007431755 -s 18 -d -1 -p DSR -e 32 -c 2 -a 0 -i 13 -k RTR
+ -t 5.007573395 -s 17 -d -1 -p DSR -e 32 -c 2 -a 0 -i 11 -k RTR 
- -t 5.007573395 -s 17 -d -1 -p DSR -e 32 -c 2 -a 0 -i 11 -k RTR
h -t 5.007573395 -s 17 -d -1 -p DSR -e 32 -c 2 -a 0 -i 11 -k RTR
+ -t 5.008185278 -s 3 -d -1 -p DSR -e 32 -c 2 -a 0 -i 19 -k RTR 
- -t 5.008185278 -s 3 -d -1 -p DSR -e 32 -c 2 -a 0 -i 19 -k RTR
h -t 5.008185278 -s 3 -d -1 -p DSR -e 32 -c 2 -a 0 -i 19 -k RTR
+ -t 5.008768731 -s 27 -d 13 -p DSR -e 44 -c 2 -a 0 -i 37 -k RTR 
- -t 5.008768731 -s 27 -d 13 -p DSR -e 44 -c 2 -a 0 -i 37 -k RTR
h -t 5.008768731 -s 27 -d 13 -p DSR -e 44 -c 2 -a 0 -i 37 -k RTR
+ -t 5.008908880 -s 22 -d -1 -p DSR -e 32 -c 2 -a 0 -i 17 -k RTR 
- -t 5.008908880 -s 22 -d -1 -p DSR -e 32 -c 2 -a 0 -i 17 -k RTR
h -t 5.008908880 -s 22 -d -1 -p DSR -e 32 -c 2 -a 0 -i 17 -k RTR
+ -t 5.009026877 -s 1 -d 29 -p DSR -e 44 -c 2 -a 0 -i 36 -k RTR 
- -t 5.009026877 -s 1 -d 29 -p DSR -e 44 -c 2 -a 0 -i 36 -k RTR
h -t 5.009026877 -s 1 -d 29 -p DSR -e 44 -c 2 -a 0 -i 36 -k RTR
+ -t 5.009142857 -s 7 -d -1 -p cbr -e 512 -c 2 -a 0 -i 39 -k AGT 
- -t 5.009142857 -s 7 -d -1 -p cbr -e 512 -c 2 -a 0 -i 39 -k AGT
h -t 5.009142857 -s 7 -d -1 -p cbr -e 512 -c 2 -a 0 -i 39 -k AGT
+ -t 5.009142857 -s 25 -d -1 -p cbr -e 512 -c 2 -a 0 -i 41 -k AGT 
- -t 5.009142857 -s 25 -d -1 -p cbr -e 512 -c 2 -a 0 -i 41 -k AGT
h -t 5.009142857 -s 25 -d -1 -p cbr -e 512 -c 2 -a 0 -i 41 -k AGT
+ -t 5.009142857 -s 5 -d -1 -p cbr -e 512 -c 2 -a 0 -i 43 -k AGT 
- -t 5.009142857 -s 5 -d -1 -p cbr -e 512 -c 2 -a 0 -i 43 -k AGT
h -t 5.009142857 -s 5 -d -1 -p cbr -e 512 -c 2 -a 0 -i 43 -k AGT
+ -t 5.009142857 -s 6 -d -1 -p cbr -e 512 -c 2 -a 0 -i 45 -k AGT 
- -t 5.009142857 -s 6 -d -1 -p cbr -e 512 -c 2 -a 0 -i 45 -k AGT
h -t 5.009142857 -s 6 -d -1 -p cbr -e 512 -c 2 -a 0 -i 45 -k AGT
+ -t 5.009142857 -s 4 -d -1 -p cbr -e 512 -c 2 -a 0 -i 47 -k AGT 
- -t 5.009142857 -s 4 -d -1 -p cbr -e 512 -c 2 -a 0 -i 47 -k AGT
h -t 5.009142857 -s 4 -d -1 -p cbr -e 512 -c 2 -a 0 -i 47 -k AGT
+ -t 5.009142857 -s 17 -d -1 -p cbr -e 512 -c 2 -a 0 -i 49 -k AGT 
- -t 5.009142857 -s 17 -d -1 -p cbr -e 512 -c 2 -a 0 -i 49 -k AGT
h -t 5.009142857 -s 17 -d -1 -p cbr -e 512 -c 2 -a 0 -i 49 -k AGT
+ -t 5.009142857 -s 18 -d -1 -p cbr -e 512 -c 2 -a 0 -i 51 -k AGT 
- -t 5.009142857 -s 18 -d -1 -p cbr -e 512 -c 2 -a 0 -i 51 -k AGT
h -t 5.009142857 -s 18 -d -1 -p cbr -e 512 -c 2 -a 0 -i 51 -k AGT
+ -t 5.009142857 -s 9 -d -1 -p cbr -e 512 -c 2 -a 0 -i 53 -k AGT 
- -t 5.009142857 -s 9 -d -1 -p cbr -e 512 -c 2 -a 0 -i 53 -k AGT
h -t 5.009142857 -s 9 -d -1 -p cbr -e 512 -c 2 -a 0 -i 53 -k AGT
+ -t 5.009142857 -s 22 -d -1 -p cbr -e 512 -c 2 -a 0 -i 55 -k AGT 
- -t 5.009142857 -s 22 -d -1 -p cbr -e 512 -c 2 -a 0 -i 55 -k AGT
h -t 5.009142857 -s 22 -d -1 -p cbr -e 512 -c 2 -a 0 -i 55 -k AGT
+ -t 5.009142857 -s 3 -d -1 -p cbr -e 512 -c 2 -a 0 -i 57 -k AGT 
- -t 5.009142857 -s 3 -d -1 -p cbr -e 512 -c 2 -a 0 -i 57 -k AGT
h -t 5.009142857 -s 3 -d -1 -p cbr -e 512 -c 2 -a 0 -i 57 -k AGT
+ -t 5.009142857 -s 0 -d -1 -p cbr -e 512 -c 2 -a 0 -i 59 -k AGT 
- -t 5.009142857 -s 0 -d -1 -p cbr -e 512 -c 2 -a 0 -i 59 -k AGT
h -t 5.009142857 -s 0 -d -1 -p cbr -e 512 -c 2 -a 0 -i 59 -k AGT
+ -t 5.009142857 -s 23 -d -1 -p cbr -e 512 -c 2 -a 0 -i 61 -k AGT 
- -t 5.009142857 -s 23 -d -1 -p cbr -e 512 -c 2 -a 0 -i 61 -k AGT
h -t 5.009142857 -s 23 -d -1 -p cbr -e 512 -c 2 -a 0 -i 61 -k AGT
+ -t 5.009142857 -s 26 -d -1 -p cbr -e 512 -c 2 -a 0 -i 63 -k AGT 
- -t 5.009142857 -s 26 -d -1 -p cbr -e 512 -c 2 -a 0 -i 63 -k AGT
h -t 5.009142857 -s 26 -d -1 -p cbr -e 512 -c 2 -a 0 -i 63 -k AGT
+ -t 5.009142857 -s 14 -d -1 -p cbr -e 512 -c 2 -a 0 -i 65 -k AGT 
- -t 5.009142857 -s 14 -d -1 -p cbr -e 512 -c 2 -a 0 -i 65 -k AGT
h -t 5.009142857 -s 14 -d -1 -p cbr -e 512 -c 2 -a 0 -i 65 -k AGT
+ -t 5.009142857 -s 29 -d -1 -p cbr -e 512 -c 2 -a 0 -i 67 -k AGT 
- -t 5.009142857 -s 29 -d -1 -p cbr -e 512 -c 2 -a 0 -i 67 -k AGT
h -t 5.009142857 -s 29 -d -1 -p cbr -e 512 -c 2 -a 0 -i 67 -k AGT
+ -t 5.009142857 -s 13 -d -1 -p cbr -e 512 -c 2 -a 0 -i 69 -k AGT 
- -t 5.009142857 -s 13 -d -1 -p cbr -e 512 -c 2 -a 0 -i 69 -k AGT
h -t 5.009142857 -s 13 -d -1 -p cbr -e 512 -c 2 -a 0 -i 69 -k AGT
+ -t 5.010796208 -s 16 -d 5 -p DSR -e 44 -c 2 -a 0 -i 34 -k RTR 
- -t 5.010796208 -s 16 -d 5 -p DSR -e 44 -c 2 -a 0 -i 34 -k RTR
h -t 5.010796208 -s 16 -d 5 -p DSR -e 44 -c 2 -a 0 -i 34 -k RTR
+ -t 5.010825838 -s 28 -d 23 -p DSR -e 44 -c 2 -a 0 -i 32 -k RTR 
- -t 5.010825838 -s 28 -d 23 -p DSR -e 44 -c 2 -a 0 -i 32 -k RTR
h -t 5.010825838 -s 28 -d 23 -p DSR -e 44 -c 2 -a 0 -i 32 -k RTR
+ -t 5.013726704 -s 13 -d 27 -p cbr -e 548 -c 2 -a 0 -i 30 -k RTR 
- -t 5.013726704 -s 13 -d 27 -p cbr -e 548 -c 2 -a 0 -i 30 -k RTR
h -t 5.013726704 -s 13 -d 27 -p cbr -e 548 -c 2 -a 0 -i 30 -k RTR
+ -t 5.013901466 -s 20 -d 18 -p DSR -e 44 -c 2 -a 0 -i 38 -k RTR 
- -t 5.013901466 -s 20 -d 18 -p DSR -e 44 -c 2 -a 0 -i 38 -k RTR
h -t 5.013901466 -s 20 -d 18 -p DSR -e 44 -c 2 -a 0 -i 38 -k RTR
+ -t 5.018285714 -s 7 -d -1 -p cbr -e 512 -c 2 -a 0 -i 76 -k AGT 
- -t 5.018285714 -s 7 -d -1 -p cbr -e 512 -c 2 -a 0 -i 76 -k AGT
h -t 5.018285714 -s 7 -d -1 -p cbr -e 512 -c 2 -a 0 -i 76 -k AGT
+ -t 5.018285714 -s 25 -d -1 -p cbr -e 512 -c 2 -a 0 -i 78 -k AGT 
- -t 5.018285714 -s 25 -d -1 -p cbr -e 512 -c 2 -a 0 -i 78 -k AGT
h -t 5.018285714 -s 25 -d -1 -p cbr -e 512 -c 2 -a 0 -i 78 -k AGT
+ -t 5.018285714 -s 5 -d -1 -p cbr -e 512 -c 2 -a 0 -i 80 -k AGT 
- -t 5.018285714 -s 5 -d -1 -p cbr -e 512 -c 2 -a 0 -i 80 -k AGT
h -t 5.018285714 -s 5 -d -1 -p cbr -e 512 -c 2 -a 0 -i 80 -k AGT
+ -t 5.018285714 -s 6 -d -1 -p cbr -e 512 -c 2 -a 0 -i 82 -k AGT 
- -t 5.018285714 -s 6 -d -1 -p cbr -e 512 -c 2 -a 0 -i 82 -k AGT
h -t 5.018285714 -s 6 -d -1 -p cbr -e 512 -c 2 -a 0 -i 82 -k AGT
+ -t 5.018285714 -s 4 -d -1 -p cbr -e 512 -c 2 -a 0 -i 84 -k AGT 
- -t 5.018285714 -s 4 -d -1 -p cbr -e 512 -c 2 -a 0 -i 84 -k AGT
h -t 5.018285714 -s 4 -d -1 -p cbr -e 512 -c 2 -a 0 -i 84 -k AGT
+ -t 5.018285714 -s 17 -d -1 -p cbr -e 512 -c 2 -a 0 -i 86 -k AGT 
- -t 5.018285714 -s 17 -d -1 -p cbr -e 512 -c 2 -a 0 -i 86 -k AGT
h -t 5.018285714 -s 17 -d -1 -p cbr -e 512 -c 2 -a 0 -i 86 -k AGT
+ -t 5.018285714 -s 18 -d -1 -p cbr -e 512 -c 2 -a 0 -i 88 -k AGT 
- -t 5.018285714 -s 18 -d -1 -p cbr -e 512 -c 2 -a 0 -i 88 -k AGT
h -t 5.018285714 -s 18 -d -1 -p cbr -e 512 -c 2 -a 0 -i 88 -k AGT
+ -t 5.018285714 -s 9 -d -1 -p cbr -e 512 -c 2 -a 0 -i 90 -k AGT 
- -t 5.018285714 -s 9 -d -1 -p cbr -e 512 -c 2 -a 0 -i 90 -k AGT
h -t 5.018285714 -s 9 -d -1 -p cbr -e 512 -c 2 -a 0 -i 90 -k AGT
+ -t 5.018285714 -s 22 -d -1 -p cbr -e 512 -c 2 -a 0 -i 92 -k AGT 
- -t 5.018285714 -s 22 -d -1 -p cbr -e 512 -c 2 -a 0 -i 92 -k AGT
h -t 5.018285714 -s 22 -d -1 -p cbr -e 512 -c 2 -a 0 -i 92 -k AGT
+ -t 5.018285714 -s 3 -d -1 -p cbr -e 512 -c 2 -a 0 -i 94 -k AGT 
- -t 5.018285714 -s 3 -d -1 -p cbr -e 512 -c 2 -a 0 -i 94 -k AGT
h -t 5.018285714 -s 3 -d -1 -p cbr -e 512 -c 2 -a 0 -i 94 -k AGT
+ -t 5.018285714 -s 0 -d -1 -p cbr -e 512 -c 2 -a 0 -i 96 -k AGT 
- -t 5.018285714 -s 0 -d -1 -p cbr -e 512 -c 2 -a 0 -i 96 -k AGT
h -t 5.018285714 -s 0 -d -1 -p cbr -e 512 -c 2 -a 0 -i 96 -k AGT
+ -t 5.018285714 -s 23 -d -1 -p cbr -e 512 -c 2 -a 0 -i 98 -k AGT 
- -t 5.018285714 -s 23 -d -1 -p cbr -e 512 -c 2 -a 0 -i 98 -k AGT
h -t 5.018285714 -s 23 -d -1 -p cbr -e 512 -c 2 -a 0 -i 98 -k AGT
+ -t 5.018285714 -s 26 -d -1 -p cbr -e 512 -c 2 -a 0 -i 100 -k AGT 
- -t 5.018285714 -s 26 -d -1 -p cbr -e 512 -c 2 -a 0 -i 100 -k AGT
h -t 5.018285714 -s 26 -d -1 -p cbr -e 512 -c 2 -a 0 -i 100 -k AGT
+ -t 5.018285714 -s 14 -d -1 -p cbr -e 512 -c 2 -a 0 -i 102 -k AGT 
- -t 5.018285714 -s 14 -d -1 -p cbr -e 512 -c 2 -a 0 -i 102 -k AGT
h -t 5.018285714 -s 14 -d -1 -p cbr -e 512 -c 2 -a 0 -i 102 -k AGT
+ -t 5.018285714 -s 29 -d -1 -p cbr -e 512 -c 2 -a 0 -i 104 -k AGT 
- -t 5.018285714 -s 29 -d -1 -p cbr -e 512 -c 2 -a 0 -i 104 -k AGT
h -t 5.018285714 -s 29 -d -1 -p cbr -e 512 -c 2 -a 0 -i 104 -k AGT
+ -t 5.018285714 -s 13 -d -1 -p cbr -e 512 -c 2 -a 0 -i 106 -k AGT 
- -t 5.018285714 -s 13 -d -1 -p cbr -e 512 -c 2 -a 0 -i 106 -k AGT
h -t 5.018285714 -s 13 -d -1 -p cbr -e 512 -c 2 -a 0 -i 106 -k AGT
+ -t 5.018285714 -s 13 -d 27 -p cbr -e 548 -c 2 -a 0 -i 106 -k RTR 
- -t 5.018285714 -s 13 -d 27 -p cbr -e 548 -c 2 -a 0 -i 106 -k RTR
h -t 5.018285714 -s 13 -d 27 -p cbr -e 548 -c 2 -a 0 -i 106 -k RTR
+ -t 5.023171509 -s 31 -d 25 -p DSR -e 44 -c 2 -a 0 -i 107 -k RTR 
- -t 5.023171509 -s 31 -d 25 -p DSR -e 44 -c 2 -a 0 -i 107 -k RTR
h -t 5.023171509 -s 31 -d 25 -p DSR -e 44 -c 2 -a 0 -i 107 -k RTR
+ -t 5.024353971 -s 5 -d 16 -p cbr -e 548 -c 2 -a 0 -i 4 -k RTR 
- -t 5.024353971 -s 5 -d 16 -p cbr -e 548 -c 2 -a 0 -i 4 -k RTR
h -t 5.024353971 -s 5 -d 16 -p cbr -e 548 -c 2 -a 0 -i 4 -k RTR
+ -t 5.026500841 -s 30 -d 3 -p DSR -e 44 -c 2 -a 0 -i 73 -k RTR 
- -t 5.026500841 -s 30 -d 3 -p DSR -e 44 -c 2 -a 0 -i 73 -k RTR
h -t 5.026500841 -s 30 -d 3 -p DSR -e 44 -c 2 -a 0 -i 73 -k RTR
+ -t 5.027428571 -s 7 -d -1 -p cbr -e 512 -c 2 -a 0 -i 117 -k AGT 
- -t 5.027428571 -s 7 -d -1 -p cbr -e 512 -c 2 -a 0 -i 117 -k AGT
h -t 5.027428571 -s 7 -d -1 -p cbr -e 512 -c 2 -a 0 -i 117 -k AGT
+ -t 5.027428571 -s 25 -d -1 -p cbr -e 512 -c 2 -a 0 -i 119 -k AGT 
- -t 5.027428571 -s 25 -d -1 -p cbr -e 512 -c 2 -a 0 -i 119 -k AGT
h -t 5.027428571 -s 25 -d -1 -p cbr -e 512 -c 2 -a 0 -i 119 -k AGT
+ -t 5.027428571 -s 5 -d -1 -p cbr -e 512 -c 2 -a 0 -i 121 -k AGT 
- -t 5.027428571 -s 5 -d -1 -p cbr -e 512 -c 2 -a 0 -i 121 -k AGT
h -t 5.027428571 -s 5 -d -1 -p cbr -e 512 -c 2 -a 0 -i 121 -k AGT
+ -t 5.027428571 -s 6 -d -1 -p cbr -e 512 -c 2 -a 0 -i 122 -k AGT 
- -t 5.027428571 -s 6 -d -1 -p cbr -e 512 -c 2 -a 0 -i 122 -k AGT
h -t 5.027428571 -s 6 -d -1 -p cbr -e 512 -c 2 -a 0 -i 122 -k AGT
+ -t 5.027428571 -s 4 -d -1 -p cbr -e 512 -c 2 -a 0 -i 124 -k AGT 
- -t 5.027428571 -s 4 -d -1 -p cbr -e 512 -c 2 -a 0 -i 124 -k AGT
h -t 5.027428571 -s 4 -d -1 -p cbr -e 512 -c 2 -a 0 -i 124 -k AGT
+ -t 5.027428571 -s 17 -d -1 -p cbr -e 512 -c 2 -a 0 -i 126 -k AGT 
- -t 5.027428571 -s 17 -d -1 -p cbr -e 512 -c 2 -a 0 -i 126 -k AGT
h -t 5.027428571 -s 17 -d -1 -p cbr -e 512 -c 2 -a 0 -i 126 -k AGT
+ -t 5.027428571 -s 18 -d -1 -p cbr -e 512 -c 2 -a 0 -i 128 -k AGT 
- -t 5.027428571 -s 18 -d -1 -p cbr -e 512 -c 2 -a 0 -i 128 -k AGT
h -t 5.027428571 -s 18 -d -1 -p cbr -e 512 -c 2 -a 0 -i 128 -k AGT
+ -t 5.027428571 -s 9 -d -1 -p cbr -e 512 -c 2 -a 0 -i 130 -k AGT 
- -t 5.027428571 -s 9 -d -1 -p cbr -e 512 -c 2 -a 0 -i 130 -k AGT
h -t 5.027428571 -s 9 -d -1 -p cbr -e 512 -c 2 -a 0 -i 130 -k AGT
+ -t 5.027428571 -s 22 -d -1 -p cbr -e 512 -c 2 -a 0 -i 132 -k AGT 
- -t 5.027428571 -s 22 -d -1 -p cbr -e 512 -c 2 -a 0 -i 132 -k AGT
h -t 5.027428571 -s 22 -d -1 -p cbr -e 512 -c 2 -a 0 -i 132 -k AGT
+ -t 5.027428571 -s 3 -d -1 -p cbr -e 512 -c 2 -a 0 -i 134 -k AGT 
- -t 5.027428571 -s 3 -d -1 -p cbr -e 512 -c 2 -a 0 -i 134 -k AGT
h -t 5.027428571 -s 3 -d -1 -p cbr -e 512 -c 2 -a 0 -i 134 -k AGT
+ -t 5.027428571 -s 0 -d -1 -p cbr -e 512 -c 2 -a 0 -i 136 -k AGT 
- -t 5.027428571 -s 0 -d -1 -p cbr -e 512 -c 2 -a 0 -i 136 -k AGT
h -t 5.027428571 -s 0 -d -1 -p cbr -e 512 -c 2 -a 0 -i 136 -k AGT
+ -t 5.027428571 -s 23 -d -1 -p cbr -e 512 -c 2 -a 0 -i 138 -k AGT 
- -t 5.027428571 -s 23 -d -1 -p cbr -e 512 -c 2 -a 0 -i 138 -k AGT
h -t 5.027428571 -s 23 -d -1 -p cbr -e 512 -c 2 -a 0 -i 138 -k AGT
+ -t 5.027428571 -s 26 -d -1 -p cbr -e 512 -c 2 -a 0 -i 140 -k AGT 
- -t 5.027428571 -s 26 -d -1 -p cbr -e 512 -c 2 -a 0 -i 140 -k AGT
h -t 5.027428571 -s 26 -d -1 -p cbr -e 512 -c 2 -a 0 -i 140 -k AGT
+ -t 5.027428571 -s 14 -d -1 -p cbr -e 512 -c 2 -a 0 -i 142 -k AGT 
- -t 5.027428571 -s 14 -d -1 -p cbr -e 512 -c 2 -a 0 -i 142 -k AGT
h -t 5.027428571 -s 14 -d -1 -p cbr -e 512 -c 2 -a 0 -i 142 -k AGT
+ -t 5.027428571 -s 29 -d -1 -p cbr -e 512 -c 2 -a 0 -i 144 -k AGT 
- -t 5.027428571 -s 29 -d -1 -p cbr -e 512 -c 2 -a 0 -i 144 -k AGT
h -t 5.027428571 -s 29 -d -1 -p cbr -e 512 -c 2 -a 0 -i 144 -k AGT
+ -t 5.027428571 -s 13 -d -1 -p cbr -e 512 -c 2 -a 0 -i 146 -k AGT 
- -t 5.027428571 -s 13 -d -1 -p cbr -e 512 -c 2 -a 0 -i 146 -k AGT
h -t 5.027428571 -s 13 -d -1 -p cbr -e 512 -c 2 -a 0 -i 146 -k AGT
+ -t 5.027428571 -s 5 -d 16 -p cbr -e 532 -c 2 -a 0 -i 121 -k RTR 
- -t 5.027428571 -s 5 -d 16 -p cbr -e 532 -c 2 -a 0 -i 121 -k RTR
h -t 5.027428571 -s 5 -d 16 -p cbr -e 532 -c 2 -a 0 -i 121 -k RTR
+ -t 5.027428571 -s 13 -d 27 -p cbr -e 532 -c 2 -a 0 -i 146 -k RTR 
- -t 5.027428571 -s 13 -d 27 -p cbr -e 532 -c 2 -a 0 -i 146 -k RTR
h -t 5.027428571 -s 13 -d 27 -p cbr -e 532 -c 2 -a 0 -i 146 -k RTR
r -t 5.031283124 -s 16 -d 16 -p cbr -e 512 -c 2 -a 0 -i 4 -k AGT
+ -t 5.033240710 -s 6 -d -1 -p DSR -e 32 -c 2 -a 0 -i 147 -k RTR 
- -t 5.033240710 -s 6 -d -1 -p DSR -e 32 -c 2 -a 0 -i 147 -k RTR
h -t 5.033240710 -s 6 -d -1 -p DSR -e 32 -c 2 -a 0 -i 147 -k RTR
+ -t 5.036571429 -s 7 -d -1 -p cbr -e 512 -c 2 -a 0 -i 159 -k AGT 
- -t 5.036571429 -s 7 -d -1 -p cbr -e 512 -c 2 -a 0 -i 159 -k AGT
h -t 5.036571429 -s 7 -d -1 -p cbr -e 512 -c 2 -a 0 -i 159 -k AGT
+ -t 5.036571429 -s 25 -d -1 -p cbr -e 512 -c 2 -a 0 -i 161 -k AGT 
- -t 5.036571429 -s 25 -d -1 -p cbr -e 512 -c 2 -a 0 -i 161 -k AGT
h -t 5.036571429 -s 25 -d -1 -p cbr -e 512 -c 2 -a 0 -i 161 -k AGT
+ -t 5.036571429 -s 5 -d -1 -p cbr -e 512 -c 2 -a 0 -i 163 -k AGT 
- -t 5.036571429 -s 5 -d -1 -p cbr -e 512 -c 2 -a 0 -i 163 -k AGT
h -t 5.036571429 -s 5 -d -1 -p cbr -e 512 -c 2 -a 0 -i 163 -k AGT
+ -t 5.036571429 -s 6 -d -1 -p cbr -e 512 -c 2 -a 0 -i 164 -k AGT 
- -t 5.036571429 -s 6 -d -1 -p cbr -e 512 -c 2 -a 0 -i 164 -k AGT
h -t 5.036571429 -s 6 -d -1 -p cbr -e 512 -c 2 -a 0 -i 164 -k AGT
+ -t 5.036571429 -s 4 -d -1 -p cbr -e 512 -c 2 -a 0 -i 166 -k AGT 
- -t 5.036571429 -s 4 -d -1 -p cbr -e 512 -c 2 -a 0 -i 166 -k AGT
h -t 5.036571429 -s 4 -d -1 -p cbr -e 512 -c 2 -a 0 -i 166 -k AGT
+ -t 5.036571429 -s 17 -d -1 -p cbr -e 512 -c 2 -a 0 -i 168 -k AGT 
- -t 5.036571429 -s 17 -d -1 -p cbr -e 512 -c 2 -a 0 -i 168 -k AGT
h -t 5.036571429 -s 17 -d -1 -p cbr -e 512 -c 2 -a 0 -i 168 -k AGT
+ -t 5.036571429 -s 18 -d -1 -p cbr -e 512 -c 2 -a 0 -i 170 -k AGT 
- -t 5.036571429 -s 18 -d -1 -p cbr -e 512 -c 2 -a 0 -i 170 -k AGT
h -t 5.036571429 -s 18 -d -1 -p cbr -e 512 -c 2 -a 0 -i 170 -k AGT
+ -t 5.036571429 -s 9 -d -1 -p cbr -e 512 -c 2 -a 0 -i 172 -k AGT 
- -t 5.036571429 -s 9 -d -1 -p cbr -e 512 -c 2 -a 0 -i 172 -k AGT
h -t 5.036571429 -s 9 -d -1 -p cbr -e 512 -c 2 -a 0 -i 172 -k AGT
+ -t 5.036571429 -s 22 -d -1 -p cbr -e 512 -c 2 -a 0 -i 174 -k AGT 
- -t 5.036571429 -s 22 -d -1 -p cbr -e 512 -c 2 -a 0 -i 174 -k AGT
h -t 5.036571429 -s 22 -d -1 -p cbr -e 512 -c 2 -a 0 -i 174 -k AGT
+ -t 5.036571429 -s 3 -d -1 -p cbr -e 512 -c 2 -a 0 -i 176 -k AGT 
- -t 5.036571429 -s 3 -d -1 -p cbr -e 512 -c 2 -a 0 -i 176 -k AGT
h -t 5.036571429 -s 3 -d -1 -p cbr -e 512 -c 2 -a 0 -i 176 -k AGT
+ -t 5.036571429 -s 0 -d -1 -p cbr -e 512 -c 2 -a 0 -i 178 -k AGT 
- -t 5.036571429 -s 0 -d -1 -p cbr -e 512 -c 2 -a 0 -i 178 -k AGT
h -t 5.036571429 -s 0 -d -1 -p cbr -e 512 -c 2 -a 0 -i 178 -k AGT
+ -t 5.036571429 -s 23 -d -1 -p cbr -e 512 -c 2 -a 0 -i 180 -k AGT 
- -t 5.036571429 -s 23 -d -1 -p cbr -e 512 -c 2 -a 0 -i 180 -k AGT
h -t 5.036571429 -s 23 -d -1 -p cbr -e 512 -c 2 -a 0 -i 180 -k AGT
+ -t 5.036571429 -s 26 -d -1 -p cbr -e 512 -c 2 -a 0 -i 182 -k AGT 
- -t 5.036571429 -s 26 -d -1 -p cbr -e 512 -c 2 -a 0 -i 182 -k AGT
h -t 5.036571429 -s 26 -d -1 -p cbr -e 512 -c 2 -a 0 -i 182 -k AGT
+ -t 5.036571429 -s 14 -d -1 -p cbr -e 512 -c 2 -a 0 -i 184 -k AGT 
- -t 5.036571429 -s 14 -d -1 -p cbr -e 512 -c 2 -a 0 -i 184 -k AGT
h -t 5.036571429 -s 14 -d -1 -p cbr -e 512 -c 2 -a 0 -i 184 -k AGT
+ -t 5.036571429 -s 29 -d -1 -p cbr -e 512 -c 2 -a 0 -i 186 -k AGT 
- -t 5.036571429 -s 29 -d -1 -p cbr -e 512 -c 2 -a 0 -i 186 -k AGT
h -t 5.036571429 -s 29 -d -1 -p cbr -e 512 -c 2 -a 0 -i 186 -k AGT
+ -t 5.036571429 -s 13 -d -1 -p cbr -e 512 -c 2 -a 0 -i 188 -k AGT 
- -t 5.036571429 -s 13 -d -1 -p cbr -e 512 -c 2 -a 0 -i 188 -k AGT
h -t 5.036571429 -s 13 -d -1 -p cbr -e 512 -c 2 -a 0 -i 188 -k AGT
+ -t 5.036571429 -s 5 -d 16 -p cbr -e 532 -c 2 -a 0 -i 163 -k RTR 
- -t 5.036571429 -s 5 -d 16 -p cbr -e 532 -c 2 -a 0 -i 163 -k RTR
h -t 5.036571429 -s 5 -d 16 -p cbr -e 532 -c 2 -a 0 -i 163 -k RTR
+ -t 5.036571429 -s 13 -d 27 -p cbr -e 532 -c 2 -a 0 -i 188 -k RTR 
- -t 5.036571429 -s 13 -d 27 -p cbr -e 532 -c 2 -a 0 -i 188 -k RTR
h -t 5.036571429 -s 13 -d 27 -p cbr -e 532 -c 2 -a 0 -i 188 -k RTR
+ -t 5.037601642 -s 29 -d -1 -p DSR -e 32 -c 2 -a 0 -i 187 -k RTR 
- -t 5.037601642 -s 29 -d -1 -p DSR -e 32 -c 2 -a 0 -i 187 -k RTR
h -t 5.037601642 -s 29 -d -1 -p DSR -e 32 -c 2 -a 0 -i 187 -k RTR
+ -t 5.037673224 -s 18 -d -1 -p DSR -e 32 -c 2 -a 0 -i 171 -k RTR 
- -t 5.037673224 -s 18 -d -1 -p DSR -e 32 -c 2 -a 0 -i 171 -k RTR
h -t 5.037673224 -s 18 -d -1 -p DSR -e 32 -c 2 -a 0 -i 171 -k RTR
+ -t 5.038029987 -s 20 -d -1 -p DSR -e 48 -c 2 -a 0 -i 147 -k RTR 
- -t 5.038029987 -s 20 -d -1 -p DSR -e 48 -c 2 -a 0 -i 147 -k RTR
h -t 5.038029987 -s 20 -d -1 -p DSR -e 48 -c 2 -a 0 -i 147 -k RTR
+ -t 5.038180371 -s 18 -d -1 -p DSR -e 48 -c 2 -a 0 -i 147 -k RTR 
- -t 5.038180371 -s 18 -d -1 -p DSR -e 48 -c 2 -a 0 -i 147 -k RTR
h -t 5.038180371 -s 18 -d -1 -p DSR -e 48 -c 2 -a 0 -i 147 -k RTR
+ -t 5.038222764 -s 3 -d -1 -p DSR -e 32 -c 2 -a 0 -i 177 -k RTR 
- -t 5.038222764 -s 3 -d -1 -p DSR -e 32 -c 2 -a 0 -i 177 -k RTR
h -t 5.038222764 -s 3 -d -1 -p DSR -e 32 -c 2 -a 0 -i 177 -k RTR
+ -t 5.038423994 -s 9 -d -1 -p DSR -e 32 -c 2 -a 0 -i 173 -k RTR 
- -t 5.038423994 -s 9 -d -1 -p DSR -e 32 -c 2 -a 0 -i 173 -k RTR
h -t 5.038423994 -s 9 -d -1 -p DSR -e 32 -c 2 -a 0 -i 173 -k RTR
+ -t 5.038454892 -s 25 -d -1 -p DSR -e 32 -c 2 -a 0 -i 155 -k RTR 
- -t 5.038454892 -s 25 -d -1 -p DSR -e 32 -c 2 -a 0 -i 155 -k RTR
h -t 5.038454892 -s 25 -d -1 -p DSR -e 32 -c 2 -a 0 -i 155 -k RTR
+ -t 5.038640301 -s 0 -d -1 -p DSR -e 32 -c 2 -a 0 -i 179 -k RTR 
- -t 5.038640301 -s 0 -d -1 -p DSR -e 32 -c 2 -a 0 -i 179 -k RTR
h -t 5.038640301 -s 0 -d -1 -p DSR -e 32 -c 2 -a 0 -i 179 -k RTR
+ -t 5.039132718 -s 19 -d -1 -p DSR -e 48 -c 2 -a 0 -i 147 -k RTR 
- -t 5.039132718 -s 19 -d -1 -p DSR -e 48 -c 2 -a 0 -i 147 -k RTR
h -t 5.039132718 -s 19 -d -1 -p DSR -e 48 -c 2 -a 0 -i 147 -k RTR
+ -t 5.039385299 -s 23 -d -1 -p DSR -e 32 -c 2 -a 0 -i 181 -k RTR 
- -t 5.039385299 -s 23 -d -1 -p DSR -e 32 -c 2 -a 0 -i 181 -k RTR
h -t 5.039385299 -s 23 -d -1 -p DSR -e 32 -c 2 -a 0 -i 181 -k RTR
+ -t 5.039708852 -s 17 -d -1 -p DSR -e 32 -c 2 -a 0 -i 169 -k RTR 