Sconfig 0.00000 tap: on snoop: rts? on errs? on
Sconfig 0.00000 salvage: on !bd replies? on
Sconfig 0.00000 grat error: on grat reply: on
Sconfig 0.00000 $reply for props: on ring 0 search: on
Sconfig 0.00000 using MOBICACHE
M 5.00000 0 (474.00, 452.00, 0.00), (235.00, 243.00), 7.00
M 5.00000 1 (467.00, 475.00, 0.00), (345.00, 96.00), 7.00
M 5.00000 2 (331.00, 251.00, 0.00), (375.00, 275.00), 7.00
M 5.00000 3 (260.00, 87.00, 0.00), (252.00, 438.00), 7.00
M 5.00000 4 (14.00, 6.00, 0.00), (247.00, 86.00), 7.00
M 5.00000 5 (37.00, 195.00, 0.00), (294.00, 406.00), 7.00
M 5.00000 6 (71.00, 492.00, 0.00), (71.00, 275.00), 7.00
M 5.00000 7 (418.00, 484.00, 0.00), (214.00, 386.00), 7.00
M 5.00000 8 (40.00, 93.00, 0.00), (484.00, 102.00), 7.00
M 5.00000 9 (75.00, 3.00, 0.00), (497.00, 118.00), 7.00
M 5.00000 10 (439.00, 423.00, 0.00), (272.00, 239.00), 7.00
M 5.00000 11 (372.00, 245.00, 0.00), (188.00, 388.00), 7.00
M 5.00000 12 (130.00, 93.00, 0.00), (55.00, 129.00), 7.00
M 5.00000 13 (432.00, 397.00, 0.00), (137.00, 325.00), 7.00
M 5.00000 14 (402.00, 495.00, 0.00), (16.00, 164.00), 7.00
M 5.00000 15 (144.00, 84.00, 0.00), (443.00, 474.00), 7.00
M 5.00000 16 (172.00, 321.00, 0.00), (55.00, 477.00), 7.00
M 5.00000 17 (12.00, 78.00, 0.00), (4.00, 352.00), 7.00
M 5.00000 18 (262.00, 383.00, 0.00), (477.00, 297.00), 7.00
M 5.00000 19 (153.00, 409.00, 0.00), (441.00, 457.00), 7.00
M 5.00000 20 (44.00, 382.00, 0.00), (340.00, 372.00), 7.00
M 5.00000 21 (53.00, 71.00, 0.00), (496.00, 131.00), 7.00
M 5.00000 22 (216.00, 38.00, 0.00), (46.00, 193.00), 7.00
M 5.00000 23 (388.00, 475.00, 0.00), (175.00, 290.00), 7.00
M 5.00000 24 (264.00, 34.00, 0.00), (391.00, 88.00), 7.00
M 5.00000 25 (62.00, 253.00, 0.00), (208.00, 80.00), 7.00
M 5.00000 26 (448.00, 195.00, 0.00), (209.00, 32.00), 7.00
M 5.00000 27 (374.00, 431.00, 0.00), (152.00, 434.00), 7.00
M 5.00000 28 (476.00, 416.00, 0.00), (84.00, 192.00), 7.00
M 5.00000 29 (383.00, 263.00, 0.00), (93.00, 464.00), 7.00
M 5.00000 30 (224.00, 111.00, 0.00), (56.00, 398.00), 7.00
M 5.00000 31 (23.00, 391.00, 0.00), (1.00, 220.00), 7.00
s 5.000000000 _7_ AGT  --- 0 cbr 512 [0 0 0 0] ------- [7:0 15:0 32 0] [0] 0 0
r 5.000000000 _7_ RTR  --- 0 cbr 512 [0 0 0 0] ------- [7:0 15:0 32 0] [0] 0 0
s 5.000000000 _25_ AGT  --- 2 cbr 512 [0 0 0 0] ------- [25:0 31:0 32 0] [0] 0 0
r 5.000000000 _25_ RTR  --- 2 cbr 512 [0 0 0 0] ------- [25:0 31:0 32 0] [0] 0 0
s 5.000000000 _5_ AGT  --- 4 cbr 512 [0 0 0 0] ------- [5:0 16:0 32 0] [0] 0 0
r 5.000000000 _5_ RTR  --- 4 cbr 512 [0 0 0 0] ------- [5:0 16:0 32 0] [0] 0 0
s 5.000000000 _6_ AGT  --- 6 cbr 512 [0 0 0 0] ------- [6:0 8:0 32 0] [0] 0 0
r 5.000000000 _6_ RTR  --- 6 cbr 512 [0 0 0 0] ------- [6:0 8:0 32 0] [0] 0 0
s 5.000000000 _4_ AGT  --- 8 cbr 512 [0 0 0 0] ------- [4:0 21:0 32 0] [0] 0 0
r 5.000000000 _4_ RTR  --- 8 cbr 512 [0 0 0 0] ------- [4:0 21:0 32 0] [0] 0 0
s 5.000000000 _17_ AGT  --- 10 cbr 512 [0 0 0 0] ------- [17:0 2:0 32 0] [0] 0 0
r 5.000000000 _17_ RTR  --- 10 cbr 512 [0 0 0 0] ------- [17:0 2:0 32 0] [0] 0 0
s 5.000000000 _18_ AGT  --- 12 cbr 512 [0 0 0 0] ------- [18:0 20:0 32 0] [0] 0 0
r 5.000000000 _18_ RTR  --- 12 cbr 512 [0 0 0 0] ------- [18:0 20:0 32 0] [0] 0 0
s 5.000000000 _9_ AGT  --- 14 cbr 512 [0 0 0 0] ------- [9:0 11:0 32 0] [0] 0 0
r 5.000000000 _9_ RTR  --- 14 cbr 512 [0 0 0 0] ------- [9:0 11:0 32 0] [0] 0 0
s 5.000000000 _22_ AGT  --- 16 cbr 512 [0 0 0 0] ------- [22:0 19:0 32 0] [0] 0 0
r 5.000000000 _22_ RTR  --- 16 cbr 512 [0 0 0 0] ------- [22:0 19:0 32 0] [0] 0 0
s 5.000000000 _3_ AGT  --- 18 cbr 512 [0 0 0 0] ------- [3:0 30:0 32 0] [0] 0 0
r 5.000000000 _3_ RTR  --- 18 cbr 512 [0 0 0 0] ------- [3:0 30:0 32 0] [0] 0 0
s 5.000000000 _0_ AGT  --- 20 cbr 512 [0 0 0 0] ------- [0:0 24:0 32 0] [0] 0 0
r 5.000000000 _0_ RTR  --- 20 cbr 512 [0 0 0 0] ------- [0:0 24:0 32 0] [0] 0 0
s 5.000000000 _23_ AGT  --- 22 cbr 512 [0 0 0 0] ------- [23:0 28:0 32 0] [0] 0 0
r 5.000000000 _23_ RTR  --- 22 cbr 512 [0 0 0 0] ------- [23:0 28:0 32 0] [0] 0 0
s 5.000000000 _26_ AGT  --- 24 cbr 512 [0 0 0 0] ------- [26:0 10:0 32 0] [0] 0 0
r 5.000000000 _26_ RTR  --- 24 cbr 512 [0 0 0 0] ------- [26:0 10:0 32 0] [0] 0 0
s 5.000000000 _14_ AGT  --- 26 cbr 512 [0 0 0 0] ------- [14:0 12:0 32 0] [0] 0 0
r 5.000000000 _14_ RTR  --- 26 cbr 512 [0 0 0 0] ------- [14:0 12:0 32 0] [0] 0 0
s 5.000000000 _29_ AGT  --- 28 cbr 512 [0 0 0 0] ------- [29:0 1:0 32 0] [0] 0 0
r 5.000000000 _29_ RTR  --- 28 cbr 512 [0 0 0 0] ------- [29:0 1:0 32 0] [0] 0 0
s 5.000000000 _13_ AGT  --- 30 cbr 512 [0 0 0 0] ------- [13:0 27:0 32 0] [0] 0 0
r 5.000000000 _13_ RTR  --- 30 cbr 512 [0 0 0 0] ------- [13:0 27:0 32 0] [0] 0 0
s 5.000091526 _0_ RTR  --- 21 DSR 32 [0 0 0 0] ------- [0:255 24:255 32 0] 1 [1 1] [0 1 0 0->0] [0 0 0 0->0]
s 5.000600629 _7_ RTR  --- 1 DSR 32 [0 0 0 0] ------- [7:255 15:255 32 0] 1 [1 1] [0 1 0 0->0] [0 0 0 0->0]
s 5.000882653 _23_ RTR  --- 23 DSR 32 [0 0 0 0] ------- [23:255 28:255 32 0] 1 [1 1] [0 1 0 0->0] [0 0 0 0->0]
r 5.000991607 _1_ RTR  --- 21 DSR 32 [0 ffffffff 0 800] ------- [0:255 24:255 32 0] 1 [1 1] [0 1 0 0->0] [0 0 0 0->0]
r 5.000991647 _28_ RTR  --- 21 DSR 32 [0 ffffffff 0 800] ------- [0:255 24:255 32 0] 1 [1 1] [0 1 0 0->0] [0 0 0 0->0]
r 5.000991678 _10_ RTR  --- 21 DSR 32 [0 ffffffff 0 800] ------- [0:255 24:255 32 0] 1 [1 1] [0 1 0 0->0] [0 0 0 0->0]
r 5.000991741 _7_ RTR  --- 21 DSR 32 [0 ffffffff 0 800] ------- [0:255 24:255 32 0] 1 [1 1] [0 1 0 0->0] [0 0 0 0->0]
r 5.000991757 _13_ RTR  --- 21 DSR 32 [0 ffffffff 0 800] ------- [0:255 24:255 32 0] 1 [1 1] [0 1 0 0->0] [0 0 0 0->0]
r 5.000991806 _14_ RTR  --- 21 DSR 32 [0 ffffffff 0 800] ------- [0:255 24:255 32 0] 1 [1 1] [0 1 0 0->0] [0 0 0 0->0]
r 5.000991823 _23_ RTR  --- 21 DSR 32 [0 ffffffff 0 800] ------- [0:255 24:255 32 0] 1 [1 1] [0 1 0 0->0] [0 0 0 0->0]
r 5.000991867 _27_ RTR  --- 21 DSR 32 [0 ffffffff 0 800] ------- [0:255 24:255 32 0] 1 [1 1] [0 1 0 0->0] [0 0 0 0->0]
r 5.000992226 _29_ RTR  --- 21 DSR 32 [0 ffffffff 0 800] ------- [0:255 24:255 32 0] 1 [1 1] [0 1 0 0->0] [0 0 0 0->0]
r 5.000992270 _18_ RTR  --- 21 DSR 32 [0 ffffffff 0 800] ------- [0:255 24:255 32 0] 1 [1 1] [0 1 0 0->0] [0 0 0 0->0]
r 5.000992296 _11_ RTR  --- 21 DSR 32 [0 ffffffff 0 800] ------- [0:255 24:255 32 0] 1 [1 1] [0 1 0 0->0] [0 0 0 0->0]
r 5.000992349 _2_ RTR  --- 21 DSR 32 [0 ffffffff 0 800] ------- [0:255 24:255 32 0] 1 [1 1] [0 1 0 0->0] [0 0 0 0->0]
s 5.001213058 _5_ RTR  --- 5 DSR 32 [0 0 0 0] ------- [5:255 16:255 32 0] 1 [1 1] [0 1 0 0->0] [0 0 0 0->0]
r 5.001981806 _14_ RTR  --- 1 DSR 32 [0 ffffffff 7 800] ------- [7:255 15:255 32 0] 1 [1 1] [0 1 0 0->0] [0 0 0 0->0]
r 5.001981846 _23_ RTR  --- 1 DSR 32 [0 ffffffff 7 800] ------- [7:255 15:255 32 0] 1 [1 1] [0 1 0 0->0] [0 0 0 0->0]
r 5.001981907 _1_ RTR  --- 1 DSR 32 [0 ffffffff 7 800] ------- [7:255 15:255 32 0] 1 [1 1] [0 1 0 0->0] [0 0 0 0->0]
r 5.001981956 _0_ RTR  --- 1 DSR 32 [0 ffffffff 7 800] ------- [7:255 15:255 32 0] 1 [1 1] [0 1 0 0->0] [0 0 0 0->0]
r 5.001981956 _10_ RTR  --- 1 DSR 32 [0 ffffffff 7 800] ------- [7:255 15:255 32 0] 1 [1 1] [0 1 0 0->0] [0 0 0 0->0]
r 5.001981971 _27_ RTR  --- 1 DSR 32 [0 ffffffff 7 800] ------- [7:255 15:255 32 0] 1 [1 1] [0 1 0 0->0] [0 0 0 0->0]
r 5.001982035 _13_ RTR  --- 1 DSR 32 [0 ffffffff 7 800] ------- [7:255 15:255 32 0] 1 [1 1] [0 1 0 0->0] [0 0 0 0->0]
r 5.001982039 _28_ RTR  --- 1 DSR 32 [0 ffffffff 7 800] ------- [7:255 15:255 32 0] 1 [1 1] [0 1 0 0->0] [0 0 0 0->0]
r 5.001982361 _18_ RTR  --- 1 DSR 32 [0 ffffffff 7 800] ------- [7:255 15:255 32 0] 1 [1 1] [0 1 0 0->0] [0 0 0 0->0]
r 5.001982487 _29_ RTR  --- 1 DSR 32 [0 ffffffff 7 800] ------- [7:255 15:255 32 0] 1 [1 1] [0 1 0 0->0] [0 0 0 0->0]
r 5.001982553 _11_ RTR  --- 1 DSR 32 [0 ffffffff 7 800] ------- [7:255 15:255 32 0] 1 [1 1] [0 1 0 0->0] [0 0 0 0->0]
r 5.001982570 _2_ RTR  --- 1 DSR 32 [0 ffffffff 7 800] ------- [7:255 15:255 32 0] 1 [1 1] [0 1 0 0->0] [0 0 0 0->0]
s 5.002828981 _9_ RTR  --- 15 DSR 32 [0 0 0 0] ------- [9:255 11:255 32 0] 1 [1 1] [0 1 0 0->0] [0 0 0 0->0]
s 5.002879745 _26_ RTR  --- 25 DSR 32 [0 0 0 0] ------- [26:255 10:255 32 0] 1 [1 1] [0 1 0 0->0] [0 0 0 0->0]
r 5.003111927 _14_ RTR  --- 23 DSR 32 [0 ffffffff 17 800] ------- [23:255 28:255 32 0] 1 [1 1] [0 1 0 0->0] [0 0 0 0->0]
r 5.003111950 _7_ RTR  --- 23 DSR 32 [0 ffffffff 17 800] ------- [23:255 28:255 32 0] 1 [1 1] [0 1 0 0->0] [0 0 0 0->0]
r 5.003112000 _27_ RTR  --- 23 DSR 32 [0 ffffffff 17 800] ------- [23:255 28:255 32 0] 1 [1 1] [0 1 0 0->0] [0 0 0 0->0]
r 5.003112089 _10_ RTR  --- 23 DSR 32 [0 ffffffff 17 800] ------- [23:255 28:255 32 0] 1 [1 1] [0 1 0 0->0] [0 0 0 0->0]
r 5.003112109 _1_ RTR  --- 23 DSR 32 [0 ffffffff 17 800] ------- [23:255 28:255 32 0] 1 [1 1] [0 1 0 0->0] [0 0 0 0->0]
r 5.003112143 _0_ RTR  --- 23 DSR 32 [0 ffffffff 17 800] ------- [23:255 28:255 32 0] 1 [1 1] [0 1 0 0->0] [0 0 0 0->0]
r 5.003112144 _13_ RTR  --- 23 DSR 32 [0 ffffffff 17 800] ------- [23:255 28:255 32 0] 1 [1 1] [0 1 0 0->0] [0 0 0 0->0]
r 5.003112199 _28_ RTR  --- 23 DSR 32 [0 ffffffff 17 800] ------- [23:255 28:255 32 0] 1 [1 1] [0 1 0 0->0] [0 0 0 0->0]
r 5.003112366 _18_ RTR  --- 23 DSR 32 [0 ffffffff 17 800] ------- [23:255 28:255 32 0] 1 [1 1] [0 1 0 0->0] [0 0 0 0->0]
r 5.003112553 _29_ RTR  --- 23 DSR 32 [0 ffffffff 17 800] ------- [23:255 28:255 32 0] 1 [1 1] [0 1 0 0->0] [0 0 0 0->0]
r 5.003112614 _11_ RTR  --- 23 DSR 32 [0 ffffffff 17 800] ------- [23:255 28:255 32 0] 1 [1 1] [0 1 0 0->0] [0 0 0 0->0]
r 5.003112616 _2_ RTR  --- 23 DSR 32 [0 ffffffff 17 800] ------- [23:255 28:255 32 0] 1 [1 1] [0 1 0 0->0] [0 0 0 0->0]
r 5.003112659 _19_ RTR  --- 23 DSR 32 [0 ffffffff 17 800] ------- [23:255 28:255 32 0] 1 [1 1] [0 1 0 0->0] [0 0 0 0->0]
s 5.003175462 _6_ RTR  --- 7 DSR 32 [0 0 0 0] ------- [6:255 8:255 32 0] 1 [1 1] [0 1 0 0->0] [0 0 0 0->0]
s 5.003280110 _29_ RTR  --- 29 DSR 32 [0 0 0 0] ------- [29:255 1:255 32 0] 1 [1 1] [0 1 0 0->0] [0 0 0 0->0]
r 5.004089184 _4_ RTR  --- 15 DSR 32 [0 ffffffff 9 800] ------- [9:255 11:255 32 0] 1 [1 1] [0 1 0 0->0] [0 0 0 0->0]
r 5.004089219 _21_ RTR  --- 15 DSR 32 [0 ffffffff 9 800] ------- [9:255 11:255 32 0] 1 [1 1] [0 1 0 0->0] [0 0 0 0->0]
r 5.004089303 _8_ RTR  --- 15 DSR 32 [0 ffffffff 9 800] ------- [9:255 11:255 32 0] 1 [1 1] [0 1 0 0->0] [0 0 0 0->0]
r 5.004089307 _17_ RTR  --- 15 DSR 32 [0 ffffffff 9 800] ------- [9:255 11:255 32 0] 1 [1 1] [0 1 0 0->0] [0 0 0 0->0]
r 5.004089332 _12_ RTR  --- 15 DSR 32 [0 ffffffff 9 800] ------- [9:255 11:255 32 0] 1 [1 1] [0 1 0 0->0] [0 0 0 0->0]
r 5.004089335 _15_ RTR  --- 15 DSR 32 [0 ffffffff 9 800] ------- [9:255 11:255 32 0] 1 [1 1] [0 1 0 0->0] [0 0 0 0->0]
r 5.004089465 _22_ RTR  --- 15 DSR 32 [0 ffffffff 9 800] ------- [9:255 11:255 32 0] 1 [1 1] [0 1 0 0->0] [0 0 0 0->0]
r 5.004089594 _30_ RTR  --- 15 DSR 32 [0 ffffffff 9 800] ------- [9:255 11:255 32 0] 1 [1 1] [0 1 0 0->0] [0 0 0 0->0]
r 5.004089619 _24_ RTR  --- 15 DSR 32 [0 ffffffff 9 800] ------- [9:255 11:255 32 0] 1 [1 1] [0 1 0 0->0] [0 0 0 0->0]
r 5.004089633 _5_ RTR  --- 15 DSR 32 [0 ffffffff 9 800] ------- [9:255 11:255 32 0] 1 [1 1] [0 1 0 0->0] [0 0 0 0->0]
r 5.004089658 _3_ RTR  --- 15 DSR 32 [0 ffffffff 9 800] ------- [9:255 11:255 32 0] 1 [1 1] [0 1 0 0->0] [0 0 0 0->0]
r 5.004899844 _25_ RTR  --- 5 DSR 32 [0 ffffffff 5 800] ------- [5:255 16:255 32 0] 1 [1 1] [0 1 0 0->0] [0 0 0 0->0]
r 5.004899973 _8_ RTR  --- 5 DSR 32 [0 ffffffff 5 800] ------- [5:255 16:255 32 0] 1 [1 1] [0 1 0 0->0] [0 0 0 0->0]
r 5.004900032 _17_ RTR  --- 5 DSR 32 [0 ffffffff 5 800] ------- [5:255 16:255 32 0] 1 [1 1] [0 1 0 0->0] [0 0 0 0->0]
r 5.004900050 _21_ RTR  --- 5 DSR 32 [0 ffffffff 5 800] ------- [5:255 16:255 32 0] 1 [1 1] [0 1 0 0->0] [0 0 0 0->0]
r 5.004900093 _12_ RTR  --- 5 DSR 32 [0 ffffffff 5 800] ------- [5:255 16:255 32 0] 1 [1 1] [0 1 0 0->0] [0 0 0 0->0]
r 5.004900147 _15_ RTR  --- 5 DSR 32 [0 ffffffff 5 800] ------- [5:255 16:255 32 0] 1 [1 1] [0 1 0 0->0] [0 0 0 0->0]
r 5.004900249 _16_ RTR  --- 5 DSR 32 [0 ffffffff 5 800] ------- [5:255 16:255 32 0] 1 [1 1] [0 1 0 0->0] [0 0 0 0->0]
r 5.004900257 _20_ RTR  --- 5 DSR 32 [0 ffffffff 5 800] ------- [5:255 16:255 32 0] 1 [1 1] [0 1 0 0->0] [0 0 0 0->0]
r 5.004900268 _4_ RTR  --- 5 DSR 32 [0 ffffffff 5 800] ------- [5:255 16:255 32 0] 1 [1 1] [0 1 0 0->0] [0 0 0 0->0]
r 5.004900286 _9_ RTR  --- 5 DSR 32 [0 ffffffff 5 800] ------- [5:255 16:255 32 0] 1 [1 1] [0 1 0 0->0] [0 0 0 0->0]
r 5.004900288 _31_ RTR  --- 5 DSR 32 [0 ffffffff 5 800] ------- [5:255 16:255 32 0] 1 [1 1] [0 1 0 0->0] [0 0 0 0->0]
r 5.004900316 _30_ RTR  --- 5 DSR 32 [0 ffffffff 5 800] ------- [5:255 16:255 32 0] 1 [1 1] [0 1 0 0->0] [0 0 0 0->0]
r 5.004900427 _22_ RTR  --- 5 DSR 32 [0 ffffffff 5 800] ------- [5:255 16:255 32 0] 1 [1 1] [0 1 0 0->0] [0 0 0 0->0]
r 5.004900445 _19_ RTR  --- 5 DSR 32 [0 ffffffff 5 800] ------- [5:255 16:255 32 0] 1 [1 1] [0 1 0 0->0] [0 0 0 0->0]
r 5.004900459 _3_ RTR  --- 5 DSR 32 [0 ffffffff 5 800] ------- [5:255 16:255 32 0] 1 [1 1] [0 1 0 0->0] [0 0 0 0->0]
s 5.005894741 _4_ RTR  --- 9 DSR 32 [0 0 0 0] ------- [4:255 21:255 32 0] 1 [1 1] [0 1 0 0->0] [0 0 0 0->0]
r 5.006114879 _11_ RTR  --- 29 DSR 32 [0 ffffffff 1d 800] ------- [29:255 1:255 32 0] 1 [1 1] [0 1 0 0->0] [0 0 0 0->0]
r 5.006114986 _2_ RTR  --- 29 DSR 32 [0 ffffffff 1d 800] ------- [29:255 1:255 32 0] 1 [1 1] [0 1 0 0->0] [0 0 0 0->0]
r 5.006115122 _26_ RTR  --- 29 DSR 32 [0 ffffffff 1d 800] ------- [29:255 1:255 32 0] 1 [1 1] [0 1 0 0->0] [0 0 0 0->0]
r 5.006115284 _13_ RTR  --- 29 DSR 32 [0 ffffffff 1d 800] ------- [29:255 1:255 32 0] 1 [1 1] [0 1 0 0->0] [0 0 0 0->0]
r 5.006115369 _27_ RTR  --- 29 DSR 32 [0 ffffffff 1d 800] ------- [29:255 1:255 32 0] 1 [1 1] [0 1 0 0->0] [0 0 0 0->0]
r 5.006115373 _10_ RTR  --- 29 DSR 32 [0 ffffffff 1d 800] ------- [29:255 1:255 32 0] 1 [1 1] [0 1 0 0->0] [0 0 0 0->0]
r 5.006115376 _18_ RTR  --- 29 DSR 32 [0 ffffffff 1d 800] ------- [29:255 1:255 32 0] 1 [1 1] [0 1 0 0->0] [0 0 0 0->0]
r 5.006115405 _28_ RTR  --- 29 DSR 32 [0 ffffffff 1d 800] ------- [29:255 1:255 32 0] 1 [1 1] [0 1 0 0->0] [0 0 0 0->0]
r 5.006115507 _0_ RTR  --- 29 DSR 32 [0 ffffffff 1d 800] ------- [29:255 1:255 32 0] 1 [1 1] [0 1 0 0->0] [0 0 0 0->0]
r 5.006115515 _23_ RTR  --- 29 DSR 32 [0 ffffffff 1d 800] ------- [29:255 1:255 32 0] 1 [1 1] [0 1 0 0->0] [0 0 0 0->0]
r 5.006115524 _3_ RTR  --- 29 DSR 32 [0 ffffffff 1d 800] ------- [29:255 1:255 32 0] 1 [1 1] [0 1 0 0->0] [0 0 0 0->0]
r 5.006115538 _16_ RTR  --- 29 DSR 32 [0 ffffffff 1d 800] ------- [29:255 1:255 32 0] 1 [1 1] [0 1 0 0->0] [0 0 0 0->0]
r 5.006115542 _30_ RTR  --- 29 DSR 32 [0 ffffffff 1d 800] ------- [29:255 1:255 32 0] 1 [1 1] [0 1 0 0->0] [0 0 0 0->0]
r 5.006115554 _7_ RTR  --- 29 DSR 32 [0 ffffffff 1d 800] ------- [29:255 1:255 32 0] 1 [1 1] [0 1 0 0->0] [0 0 0 0->0]
r 5.006115568 _1_ RTR  --- 29 DSR 32 [0 ffffffff 1d 800] ------- [29:255 1:255 32 0] 1 [1 1] [0 1 0 0->0] [0 0 0 0->0]
r 5.006115584 _14_ RTR  --- 29 DSR 32 [0 ffffffff 1d 800] ------- [29:255 1:255 32 0] 1 [1 1] [0 1 0 0->0] [0 0 0 0->0]
s 5.006125061 _14_ RTR  --- 27 DSR 32 [0 0 0 0] ------- [14:255 12:255 32 0] 1 [1 1] [0 1 0 0->0] [0 0 0 0->0]
s 5.006339506 _13_ RTR  --- 31 DSR 32 [0 0 0 0] ------- [13:255 27:255 32 0] 1 [1 1] [0 1 0 0->0] [0 0 0 0->0]
s 5.006569939 _25_ RTR  --- 3 DSR 32 [0 0 0 0] ------- [25:255 31:255 32 0] 1 [1 1] [0 1 0 0->0] [0 0 0 0->0]
r 5.006985125 _7_ RTR  --- 27 DSR 32 [0 ffffffff e 800] ------- [14:255 12:255 32 0] 1 [1 1] [0 1 0 0->0] [0 0 0 0->0]
r 5.006985142 _23_ RTR  --- 27 DSR 32 [0 ffffffff e 800] ------- [14:255 12:255 32 0] 1 [1 1] [0 1 0 0->0] [0 0 0 0->0]
r 5.006985287 _1_ RTR  --- 27 DSR 32 [0 ffffffff e 800] ------- [14:255 12:255 32 0] 1 [1 1] [0 1 0 0->0] [0 0 0 0->0]
r 5.006985293 _27_ RTR  --- 27 DSR 32 [0 ffffffff e 800] ------- [14:255 12:255 32 0] 1 [1 1] [0 1 0 0->0] [0 0 0 0->0]
r 5.006985330 _10_ RTR  --- 27 DSR 32 [0 ffffffff e 800] ------- [14:255 12:255 32 0] 1 [1 1] [0 1 0 0->0] [0 0 0 0->0]
r 5.006985340 _0_ RTR  --- 27 DSR 32 [0 ffffffff e 800] ------- [14:255 12:255 32 0] 1 [1 1] [0 1 0 0->0] [0 0 0 0->0]
r 5.006985402 _13_ RTR  --- 27 DSR 32 [0 ffffffff e 800] ------- [14:255 12:255 32 0] 1 [1 1] [0 1 0 0->0] [0 0 0 0->0]
r 5.006985421 _28_ RTR  --- 27 DSR 32 [0 ffffffff e 800] ------- [14:255 12:255 32 0] 1 [1 1] [0 1 0 0->0] [0 0 0 0->0]
r 5.006985658 _18_ RTR  --- 27 DSR 32 [0 ffffffff e 800] ------- [14:255 12:255 32 0] 1 [1 1] [0 1 0 0->0] [0 0 0 0->0]
r 5.006985836 _29_ RTR  --- 27 DSR 32 [0 ffffffff e 800] ------- [14:255 12:255 32 0] 1 [1 1] [0 1 0 0->0] [0 0 0 0->0]
r 5.007310511 _9_ RTR  --- 9 DSR 32 [0 ffffffff 4 800] ------- [4:255 21:255 32 0] 1 [1 1] [0 1 0 0->0] [0 0 0 0->0]
r 5.007310547 _17_ RTR  --- 9 DSR 32 [0 ffffffff 4 800] ------- [4:255 21:255 32 0] 1 [1 1] [0 1 0 0->0] [0 0 0 0->0]
s 5.007431755 _18_ RTR  --- 13 DSR 32 [0 0 0 0] ------- [18:255 20:255 32 0] 1 [1 1] [0 1 0 0->0] [0 0 0 0->0]
s 5.007573395 _17_ RTR  --- 11 DSR 32 [0 0 0 0] ------- [17:255 2:255 32 0] 1 [1 1] [0 1 0 0->0] [0 0 0 0->0]
r 5.008015492 _10_ RTR  --- 31 DSR 32 [0 ffffffff d 800] ------- [13:255 27:255 32 0] 1 [1 1] [0 1 0 0->0] [0 0 0 0->0]
r 5.008015562 _28_ RTR  --- 31 DSR 32 [0 ffffffff d 800] ------- [13:255 27:255 32 0] 1 [1 1] [0 1 0 0->0] [0 0 0 0->0]
r 5.008015626 _27_ RTR  --- 31 DSR 32 [0 ffffffff d 800] ------- [13:255 27:255 32 0] 1 [1 1] [0 1 0 0->0] [0 0 0 0->0]
r 5.008015633 _0_ RTR  --- 31 DSR 32 [0 ffffffff d 800] ------- [13:255 27:255 32 0] 1 [1 1] [0 1 0 0->0] [0 0 0 0->0]
r 5.008015687 _1_ RTR  --- 31 DSR 32 [0 ffffffff d 800] ------- [13:255 27:255 32 0] 1 [1 1] [0 1 0 0->0] [0 0 0 0->0]
r 5.008015696 _7_ RTR  --- 31 DSR 32 [0 ffffffff d 800] ------- [13:255 27:255 32 0] 1 [1 1] [0 1 0 0->0] [0 0 0 0->0]
r 5.008015701 _23_ RTR  --- 31 DSR 32 [0 ffffffff d 800] ------- [13:255 27:255 32 0] 1 [1 1] [0 1 0 0->0] [0 0 0 0->0]
r 5.008015744 _14_ RTR  --- 31 DSR 32 [0 ffffffff d 800] ------- [13:255 27:255 32 0] 1 [1 1] [0 1 0 0->0] [0 0 0 0->0]
r 5.008015878 _29_ RTR  --- 31 DSR 32 [0 ffffffff d 800] ------- [13:255 27:255 32 0] 1 [1 1] [0 1 0 0->0] [0 0 0 0->0]
r 5.008015970 _18_ RTR  --- 31 DSR 32 [0 ffffffff d 800] ------- [13:255 27:255 32 0] 1 [1 1] [0 1 0 0->0] [0 0 0 0->0]
s 5.008185278 _3_ RTR  --- 19 DSR 32 [0 0 0 0] ------- [3:255 30:255 32 0] 1 [1 1] [0 1 0 0->0] [0 0 0 0->0]
s 5.008768731 _27_ RTR  --- 37 DSR 44 [0 0 0 0] ------- [27:255 13:255 254 13] 2 [0 1] [1 1 2 13->27] [0 0 0 0->0]
r 5.008786335 _16_ RTR  --- 13 DSR 32 [0 ffffffff 12 800] ------- [18:255 20:255 32 0] 1 [1 1] [0 1 0 0->0] [0 0 0 0->0]
r 5.008786344 _19_ RTR  --- 13 DSR 32 [0 ffffffff 12 800] ------- [18:255 20:255 32 0] 1 [1 1] [0 1 0 0->0] [0 0 0 0->0]
r 5.008786376 _27_ RTR  --- 13 DSR 32 [0 ffffffff 12 800] ------- [18:255 20:255 32 0] 1 [1 1] [0 1 0 0->0] [0 0 0 0->0]
r 5.008786467 _2_ RTR  --- 13 DSR 32 [0 ffffffff 12 800] ------- [18:255 20:255 32 0] 1 [1 1] [0 1 0 0->0] [0 0 0 0->0]
r 5.008786490 _23_ RTR  --- 13 DSR 32 [0 ffffffff 12 800] ------- [18:255 20:255 32 0] 1 [1 1] [0 1 0 0->0] [0 0 0 0->0]
r 5.008786538 _29_ RTR  --- 13 DSR 32 [0 ffffffff 12 800] ------- [18:255 20:255 32 0] 1 [1 1] [0 1 0 0->0] [0 0 0 0->0]
r 5.008786539 _13_ RTR  --- 13 DSR 32 [0 ffffffff 12 800] ------- [18:255 20:255 32 0] 1 [1 1] [0 1 0 0->0] [0 0 0 0->0]
r 5.008786558 _11_ RTR  --- 13 DSR 32 [0 ffffffff 12 800] ------- [18:255 20:255 32 0] 1 [1 1] [0 1 0 0->0] [0 0 0 0->0]
r 5.008786568 _14_ RTR  --- 13 DSR 32 [0 ffffffff 12 800] ------- [18:255 20:255 32 0] 1 [1 1] [0 1 0 0->0] [0 0 0 0->0]
r 5.008786575 _10_ RTR  --- 13 DSR 32 [0 ffffffff 12 800] ------- [18:255 20:255 32 0] 1 [1 1] [0 1 0 0->0] [0 0 0 0->0]
r 5.008786590 _7_ RTR  --- 13 DSR 32 [0 ffffffff 12 800] ------- [18:255 20:255 32 0] 1 [1 1] [0 1 0 0->0] [0 0 0 0->0]
r 5.008786692 _28_ RTR  --- 13 DSR 32 [0 ffffffff 12 800] ------- [18:255 20:255 32 0] 1 [1 1] [0 1 0 0->0] [0 0 0 0->0]
r 5.008786697 _20_ RTR  --- 13 DSR 32 [0 ffffffff 12 800] ------- [18:255 20:255 32 0] 1 [1 1] [0 1 0 0->0] [0 0 0 0->0]
r 5.008786704 _6_ RTR  --- 13 DSR 32 [0 ffffffff 12 800] ------- [18:255 20:255 32 0] 1 [1 1] [0 1 0 0->0] [0 0 0 0->0]
r 5.008786713 _0_ RTR  --- 13 DSR 32 [0 ffffffff 12 800] ------- [18:255 20:255 32 0] 1 [1 1] [0 1 0 0->0] [0 0 0 0->0]
r 5.008786719 _1_ RTR  --- 13 DSR 32 [0 ffffffff 12 800] ------- [18:255 20:255 32 0] 1 [1 1] [0 1 0 0->0] [0 0 0 0->0]
r 5.008786766 _25_ RTR  --- 13 DSR 32 [0 ffffffff 12 800] ------- [18:255 20:255 32 0] 1 [1 1] [0 1 0 0->0] [0 0 0 0->0]
r 5.008786768 _31_ RTR  --- 13 DSR 32 [0 ffffffff 12 800] ------- [18:255 20:255 32 0] 1 [1 1] [0 1 0 0->0] [0 0 0 0->0]
s 5.008908880 _22_ RTR  --- 17 DSR 32 [0 0 0 0] ------- [22:255 19:255 32 0] 1 [1 1] [0 1 0 0->0] [0 0 0 0->0]
s 5.009026877 _1_ RTR  --- 36 DSR 44 [0 0 0 0] ------- [1:255 29:255 254 29] 2 [0 1] [1 1 2 29->1] [0 0 0 0->0]
s 5.009142857 _7_ AGT  --- 39 cbr 512 [0 0 0 0] ------- [7:0 15:0 32 0] [1] 0 0
r 5.009142857 _7_ RTR  --- 39 cbr 512 [0 0 0 0] ------- [7:0 15:0 32 0] [1] 0 0
s 5.009142857 _25_ AGT  --- 41 cbr 512 [0 0 0 0] ------- [25:0 31:0 32 0] [1] 0 0
r 5.009142857 _25_ RTR  --- 41 cbr 512 [0 0 0 0] ------- [25:0 31:0 32 0] [1] 0 0
s 5.009142857 _5_ AGT  --- 43 cbr 512 [0 0 0 0] ------- [5:0 16:0 32 0] [1] 0 0
r 5.009142857 _5_ RTR  --- 43 cbr 512 [0 0 0 0] ------- [5:0 16:0 32 0] [1] 0 0
s 5.009142857 _6_ AGT  --- 45 cbr 512 [0 0 0 0] ------- [6:0 8:0 32 0] [1] 0 0
r 5.009142857 _6_ RTR  --- 45 cbr 512 [0 0 0 0] ------- [6:0 8:0 32 0] [1] 0 0
s 5.009142857 _4_ AGT  --- 47 cbr 512 [0 0 0 0] ------- [4:0 21:0 32 0] [1] 0 0
r 5.009142857 _4_ RTR  --- 47 cbr 512 [0 0 0 0] ------- [4:0 21:0 32 0] [1] 0 0
s 5.009142857 _17_ AGT  --- 49 cbr 512 [0 0 0 0] ------- [17:0 2:0 32 0] [1] 0 0
r 5.009142857 _17_ RTR  --- 49 cbr 512 [0 0 0 0] ------- [17:0 2:0 32 0] [1] 0 0
s 5.009142857 _18_ AGT  --- 51 cbr 512 [0 0 0 0] ------- [18:0 20:0 32 0] [1] 0 0
r 5.009142857 _18_ RTR  --- 51 cbr 512 [0 0 0 0] ------- [18:0 20:0 32 0] [1] 0 0
s 5.009142857 _9_ AGT  --- 53 cbr 512 [0 0 0 0] ------- [9:0 11:0 32 0] [1] 0 0
r 5.009142857 _9_ RTR  --- 53 cbr 512 [0 0 0 0] ------- [9:0 11:0 32 0] [1] 0 0
s 5.009142857 _22_ AGT  --- 55 cbr 512 [0 0 0 0] ------- [22:0 19:0 32 0] [1] 0 0
r 5.009142857 _22_ RTR  --- 55 cbr 512 [0 0 0 0] ------- [22:0 19:0 32 0] [1] 0 0
s 5.009142857 _3_ AGT  --- 57 cbr 512 [0 0 0 0] ------- [3:0 30:0 32 0] [1] 0 0
r 5.009142857 _3_ RTR  --- 57 cbr 512 [0 0 0 0] ------- [3:0 30:0 32 0] [1] 0 0
s 5.009142857 _0_ AGT  --- 59 cbr 512 [0 0 0 0] ------- [0:0 24:0 32 0] [1] 0 0
r 5.009142857 _0_ RTR  --- 59 cbr 512 [0 0 0 0] ------- [0:0 24:0 32 0] [1] 0 0
s 5.009142857 _23_ AGT  --- 61 cbr 512 [0 0 0 0] ------- [23:0 28:0 32 0] [1] 0 0
r 5.009142857 _23_ RTR  --- 61 cbr 512 [0 0 0 0] ------- [23:0 28:0 32 0] [1] 0 0
s 5.009142857 _26_ AGT  --- 63 cbr 512 [0 0 0 0] ------- [26:0 10:0 32 0] [1] 0 0
r 5.009142857 _26_ RTR  --- 63 cbr 512 [0 0 0 0] ------- [26:0 10:0 32 0] [1] 0 0
s 5.009142857 _14_ AGT  --- 65 cbr 512 [0 0 0 0] ------- [14:0 12:0 32 0] [1] 0 0
r 5.009142857 _14_ RTR  --- 65 cbr 512 [0 0 0 0] ------- [14:0 12:0 32 0] [1] 0 0
s 5.009142857 _29_ AGT  --- 67 cbr 512 [0 0 0 0] ------- [29:0 1:0 32 0] [1] 0 0
r 5.009142857 _29_ RTR  --- 67 cbr 512 [0 0 0 0] ------- [29:0 1:0 32 0] [1] 0 0
s 5.009142857 _13_ AGT  --- 69 cbr 512 [0 0 0 0] ------- [13:0 27:0 32 0] [1] 0 0
r 5.009142857 _13_ RTR  --- 69 cbr 512 [0 0 0 0] ------- [13:0 27:0 32 0] [1] 0 0
s 5.010796208 _16_ RTR  --- 34 DSR 44 [0 0 0 0] ------- [16:255 5:255 254 5] 2 [0 1] [1 1 2 5->16] [0 0 0 0->0]
s 5.010825838 _28_ RTR  --- 32 DSR 44 [0 0 0 0] ------- [28:255 23:255 254 23] 2 [0 1] [1 1 2 23->28] [0 0 0 0->0]
r 5.013726704 _13_ RTR  --- 37 DSR 44 [13a d 1b 800] ------- [27:255 13:255 254 13] 2 [0 1] [1 1 2 13->27] [0 0 0 0->0]
SFESTs 5.013726704 _13_ 30 [13 -> 27] 1(1) to 27 [13 |27 ]
SFESTs 5.013726704 _13_ 69 [13 -> 27] 1(1) to 27 [13 |27 ]
s 5.013726704 _13_ RTR  --- 30 cbr 548 [0 0 0 0] ------- [13:0 27:0 32 27] [0] 0 0
s 5.013901466 _20_ RTR  --- 38 DSR 44 [0 0 0 0] ------- [20:255 18:255 254 18] 2 [0 1] [1 1 2 18->20] [0 0 0 0->0]
r 5.015376701 _4_ RTR  --- 11 DSR 32 [0 ffffffff 11 800] ------- [17:255 2:255 32 0] 1 [1 1] [0 1 0 0->0] [0 0 0 0->0]
r 5.015376788 _9_ RTR  --- 11 DSR 32 [0 ffffffff 11 800] ------- [17:255 2:255 32 0] 1 [1 1] [0 1 0 0->0] [0 0 0 0->0]
r 5.016611433 _30_ RTR  --- 19 DSR 32 [0 ffffffff 3 800] ------- [3:255 30:255 32 0] 1 [1 1] [0 1 0 0->0] [0 0 0 0->0]
r 5.016611466 _24_ RTR  --- 19 DSR 32 [0 ffffffff 3 800] ------- [3:255 30:255 32 0] 1 [1 1] [0 1 0 0->0] [0 0 0 0->0]
r 5.016611508 _22_ RTR  --- 19 DSR 32 [0 ffffffff 3 800] ------- [3:255 30:255 32 0] 1 [1 1] [0 1 0 0->0] [0 0 0 0->0]
r 5.016611675 _15_ RTR  --- 19 DSR 32 [0 ffffffff 3 800] ------- [3:255 30:255 32 0] 1 [1 1] [0 1 0 0->0] [0 0 0 0->0]
r 5.016611722 _12_ RTR  --- 19 DSR 32 [0 ffffffff 3 800] ------- [3:255 30:255 32 0] 1 [1 1] [0 1 0 0->0] [0 0 0 0->0]
r 5.016611965 _9_ RTR  --- 19 DSR 32 [0 ffffffff 3 800] ------- [3:255 30:255 32 0] 1 [1 1] [0 1 0 0->0] [0 0 0 0->0]
r 5.016611980 _21_ RTR  --- 19 DSR 32 [0 ffffffff 3 800] ------- [3:255 30:255 32 0] 1 [1 1] [0 1 0 0->0] [0 0 0 0->0]
r 5.016612022 _8_ RTR  --- 19 DSR 32 [0 ffffffff 3 800] ------- [3:255 30:255 32 0] 1 [1 1] [0 1 0 0->0] [0 0 0 0->0]
r 5.016612227 _31_ RTR  --- 7 DSR 32 [0 ffffffff 6 800] ------- [6:255 8:255 32 0] 1 [1 1] [0 1 0 0->0] [0 0 0 0->0]
r 5.016612232 _20_ RTR  --- 7 DSR 32 [0 ffffffff 6 800] ------- [6:255 8:255 32 0] 1 [1 1] [0 1 0 0->0] [0 0 0 0->0]
r 5.016612243 _19_ RTR  --- 7 DSR 32 [0 ffffffff 6 800] ------- [6:255 8:255 32 0] 1 [1 1] [0 1 0 0->0] [0 0 0 0->0]
s 5.018285714 _7_ AGT  --- 76 cbr 512 [0 0 0 0] ------- [7:0 15:0 32 0] [2] 0 0
r 5.018285714 _7_ RTR  --- 76 cbr 512 [0 0 0 0] ------- [7:0 15:0 32 0] [2] 0 0
s 5.018285714 _25_ AGT  --- 78 cbr 512 [0 0 0 0] ------- [25:0 31:0 32 0] [2] 0 0
r 5.018285714 _25_ RTR  --- 78 cbr 512 [0 0 0 0] ------- [25:0 31:0 32 0] [2] 0 0
s 5.018285714 _5_ AGT  --- 80 cbr 512 [0 0 0 0] ------- [5:0 16:0 32 0] [2] 0 0
r 5.018285714 _5_ RTR  --- 80 cbr 512 [0 0 0 0] ------- [5:0 16:0 32 0] [2] 0 0
s 5.018285714 _6_ AGT  --- 82 cbr 512 [0 0 0 0] ------- [6:0 8:0 32 0] [2] 0 0
r 5.018285714 _6_ RTR  --- 82 cbr 512 [0 0 0 0] ------- [6:0 8:0 32 0] [2] 0 0
s 5.018285714 _4_ AGT  --- 84 cbr 512 [0 0 0 0] ------- [4:0 21:0 32 0] [2] 0 0
r 5.018285714 _4_ RTR  --- 84 cbr 512 [0 0 0 0] ------- [4:0 21:0 32 0] [2] 0 0
s 5.018285714 _17_ AGT  --- 86 cbr 512 [0 0 0 0] ------- [17:0 2:0 32 0] [2] 0 0
r 5.018285714 _17_ RTR  --- 86 cbr 512 [0 0 0 0] ------- [17:0 2:0 32 0] [2] 0 0
s 5.018285714 _18_ AGT  --- 88 cbr 512 [0 0 0 0] ------- [18:0 20:0 32 0] [2] 0 0
r 5.018285714 _18_ RTR  --- 88 cbr 512 [0 0 0 0] ------- [18:0 20:0 32 0] [2] 0 0
s 5.018285714 _9_ AGT  --- 90 cbr 512 [0 0 0 0] ------- [9:0 11:0 32 0] [2] 0 0
r 5.018285714 _9_ RTR  --- 90 cbr 512 [0 0 0 0] ------- [9:0 11:0 32 0] [2] 0 0
s 5.018285714 _22_ AGT  --- 92 cbr 512 [0 0 0 0] ------- [22:0 19:0 32 0] [2] 0 0
r 5.018285714 _22_ RTR  --- 92 cbr 512 [0 0 0 0] ------- [22:0 19:0 32 0] [2] 0 0
s 5.018285714 _3_ AGT  --- 94 cbr 512 [0 0 0 0] ------- [3:0 30:0 32 0] [2] 0 0
r 5.018285714 _3_ RTR  --- 94 cbr 512 [0 0 0 0] ------- [3:0 30:0 32 0] [2] 0 0
s 5.018285714 _0_ AGT  --- 96 cbr 512 [0 0 0 0] ------- [0:0 24:0 32 0] [2] 0 0
r 5.018285714 _0_ RTR  --- 96 cbr 512 [0 0 0 0] ------- [0:0 24:0 32 0] [2] 0 0
s 5.018285714 _23_ AGT  --- 98 cbr 512 [0 0 0 0] ------- [23:0 28:0 32 0] [2] 0 0
r 5.018285714 _23_ RTR  --- 98 cbr 512 [0 0 0 0] ------- [23:0 28:0 32 0] [2] 0 0
s 5.018285714 _26_ AGT  --- 100 cbr 512 [0 0 0 0] ------- [26:0 10:0 32 0] [2] 0 0
r 5.018285714 _26_ RTR  --- 100 cbr 512 [0 0 0 0] ------- [26:0 10:0 32 0] [2] 0 0
s 5.018285714 _14_ AGT  --- 102 cbr 512 [0 0 0 0] ------- [14:0 12:0 32 0] [2] 0 0
r 5.018285714 _14_ RTR  --- 102 cbr 512 [0 0 0 0] ------- [14:0 12:0 32 0] [2] 0 0
s 5.018285714 _29_ AGT  --- 104 cbr 512 [0 0 0 0] ------- [29:0 1:0 32 0] [2] 0 0
r 5.018285714 _29_ RTR  --- 104 cbr 512 [0 0 0 0] ------- [29:0 1:0 32 0] [2] 0 0
s 5.018285714 _13_ AGT  --- 106 cbr 512 [0 0 0 0] ------- [13:0 27:0 32 0] [2] 0 0
r 5.018285714 _13_ RTR  --- 106 cbr 512 [0 0 0 0] ------- [13:0 27:0 32 0] [2] 0 0
SFESTs 5.018285714 _13_ 106 [13 -> 27] 1(1) to 27 [13 |27 ]
s 5.018285714 _13_ RTR  --- 106 cbr 548 [0 0 0 0] ------- [13:0 27:0 32 27] [2] 0 0
r 5.018962964 _5_ RTR  --- 3 DSR 32 [0 ffffffff 19 800] ------- [25:255 31:255 32 0] 1 [1 1] [0 1 0 0->0] [0 0 0 0->0]
r 5.018963185 _16_ RTR  --- 3 DSR 32 [0 ffffffff 19 800] ------- [25:255 31:255 32 0] 1 [1 1] [0 1 0 0->0] [0 0 0 0->0]
r 5.018963189 _20_ RTR  --- 3 DSR 32 [0 ffffffff 19 800] ------- [25:255 31:255 32 0] 1 [1 1] [0 1 0 0->0] [0 0 0 0->0]
r 5.018963232 _31_ RTR  --- 3 DSR 32 [0 ffffffff 19 800] ------- [25:255 31:255 32 0] 1 [1 1] [0 1 0 0->0] [0 0 0 0->0]
r 5.018963292 _8_ RTR  --- 3 DSR 32 [0 ffffffff 19 800] ------- [25:255 31:255 32 0] 1 [1 1] [0 1 0 0->0] [0 0 0 0->0]
r 5.018963333 _12_ RTR  --- 3 DSR 32 [0 ffffffff 19 800] ------- [25:255 31:255 32 0] 1 [1 1] [0 1 0 0->0] [0 0 0 0->0]
r 5.018963357 _19_ RTR  --- 3 DSR 32 [0 ffffffff 19 800] ------- [25:255 31:255 32 0] 1 [1 1] [0 1 0 0->0] [0 0 0 0->0]
r 5.018963360 _17_ RTR  --- 3 DSR 32 [0 ffffffff 19 800] ------- [25:255 31:255 32 0] 1 [1 1] [0 1 0 0->0] [0 0 0 0->0]
r 5.018963361 _21_ RTR  --- 3 DSR 32 [0 ffffffff 19 800] ------- [25:255 31:255 32 0] 1 [1 1] [0 1 0 0->0] [0 0 0 0->0]
r 5.018963380 _15_ RTR  --- 3 DSR 32 [0 ffffffff 19 800] ------- [25:255 31:255 32 0] 1 [1 1] [0 1 0 0->0] [0 0 0 0->0]
r 5.018963472 _30_ RTR  --- 3 DSR 32 [0 ffffffff 19 800] ------- [25:255 31:255 32 0] 1 [1 1] [0 1 0 0->0] [0 0 0 0->0]
r 5.018963550 _18_ RTR  --- 3 DSR 32 [0 ffffffff 19 800] ------- [25:255 31:255 32 0] 1 [1 1] [0 1 0 0->0] [0 0 0 0->0]
r 5.018963551 _6_ RTR  --- 3 DSR 32 [0 ffffffff 19 800] ------- [25:255 31:255 32 0] 1 [1 1] [0 1 0 0->0] [0 0 0 0->0]