Sconfig 0.00000 tap: on snoop: rts? on errs? on
Sconfig 0.00000 salvage: on !bd replies? on
Sconfig 0.00000 grat error: on grat reply: on
Sconfig 0.00000 $reply for props: on ring 0 search: on
Sconfig 0.00000 using MOBICACHE
M 5.00000 0 (361.00, 372.00, 0.00), (248.00, 487.00), 2.00
M 5.00000 1 (385.00, 458.00, 0.00), (5.00, 432.00), 2.00
M 5.00000 2 (361.00, 325.00, 0.00), (435.00, 266.00), 2.00
M 5.00000 3 (87.00, 102.00, 0.00), (293.00, 74.00), 2.00
M 5.00000 4 (276.00, 387.00, 0.00), (215.00, 253.00), 2.00
M 5.00000 5 (234.00, 10.00, 0.00), (344.00, 145.00), 2.00
M 5.00000 6 (488.00, 162.00, 0.00), (364.00, 196.00), 2.00
M 5.00000 7 (74.00, 100.00, 0.00), (333.00, 165.00), 2.00
M 5.00000 8 (61.00, 251.00, 0.00), (260.00, 58.00), 2.00
M 5.00000 9 (230.00, 22.00, 0.00), (153.00, 223.00), 2.00
M 5.00000 10 (55.00, 79.00, 0.00), (388.00, 311.00), 2.00
M 5.00000 11 (172.00, 369.00, 0.00), (498.00, 409.00), 2.00
M 5.00000 12 (218.00, 95.00, 0.00), (44.00, 234.00), 2.00
M 5.00000 13 (209.00, 282.00, 0.00), (159.00, 426.00), 2.00
M 5.00000 14 (384.00, 146.00, 0.00), (251.00, 91.00), 2.00
M 5.00000 15 (96.00, 276.00, 0.00), (480.00, 330.00), 2.00
M 5.00000 16 (32.00, 340.00, 0.00), (346.00, 103.00), 2.00
M 5.00000 17 (380.00, 275.00, 0.00), (89.00, 444.00), 2.00
M 5.00000 18 (10.00, 488.00, 0.00), (45.00, 87.00), 2.00
M 5.00000 19 (106.00, 390.00, 0.00), (326.00, 283.00), 2.00
M 5.00000 20 (180.00, 322.00, 0.00), (318.00, 420.00), 2.00
M 5.00000 21 (252.00, 272.00, 0.00), (284.00, 370.00), 2.00
M 5.00000 22 (285.00, 468.00, 0.00), (438.00, 436.00), 2.00
M 5.00000 23 (32.00, 73.00, 0.00), (386.00, 376.00), 2.00
M 5.00000 24 (134.00, 119.00, 0.00), (22.00, 83.00), 2.00
M 5.00000 25 (316.00, 398.00, 0.00), (412.00, 44.00), 2.00
M 5.00000 26 (71.00, 170.00, 0.00), (421.00, 17.00), 2.00
M 5.00000 27 (271.00, 249.00, 0.00), (52.00, 49.00), 2.00
M 5.00000 28 (360.00, 246.00, 0.00), (5.00, 320.00), 2.00
M 5.00000 29 (498.00, 144.00, 0.00), (202.00, 286.00), 2.00
M 5.00000 30 (125.00, 265.00, 0.00), (389.00, 253.00), 2.00
M 5.00000 31 (299.00, 365.00, 0.00), (383.00, 395.00), 2.00
s 5.000000000 _7_ AGT  --- 0 cbr 512 [0 0 0 0] ------- [7:0 15:0 32 0] [0] 0 0
r 5.000000000 _7_ RTR  --- 0 cbr 512 [0 0 0 0] ------- [7:0 15:0 32 0] [0] 0 0
s 5.000000000 _25_ AGT  --- 2 cbr 512 [0 0 0 0] ------- [25:0 31:0 32 0] [0] 0 0
r 5.000000000 _25_ RTR  --- 2 cbr 512 [0 0 0 0] ------- [25:0 31:0 32 0] [0] 0 0
s 5.000000000 _5_ AGT  --- 4 cbr 512 [0 0 0 0] ------- [5:0 16:0 32 0] [0] 0 0
r 5.000000000 _5_ RTR  --- 4 cbr 512 [0 0 0 0] ------- [5:0 16:0 32 0] [0] 0 0
s 5.000000000 _6_ AGT  --- 6 cbr 512 [0 0 0 0] ------- [6:0 8:0 32 0] [0] 0 0
r 5.000000000 _6_ RTR  --- 6 cbr 512 [0 0 0 0] ------- [6:0 8:0 32 0] [0] 0 0
s 5.000000000 _4_ AGT  --- 8 cbr 512 [0 0 0 0] ------- [4:0 21:0 32 0] [0] 0 0
r 5.000000000 _4_ RTR  --- 8 cbr 512 [0 0 0 0] ------- [4:0 21:0 32 0] [0] 0 0
s 5.000000000 _17_ AGT  --- 10 cbr 512 [0 0 0 0] ------- [17:0 2:0 32 0] [0] 0 0
r 5.000000000 _17_ RTR  --- 10 cbr 512 [0 0 0 0] ------- [17:0 2:0 32 0] [0] 0 0
s 5.000000000 _18_ AGT  --- 12 cbr 512 [0 0 0 0] ------- [18:0 20:0 32 0] [0] 0 0
r 5.000000000 _18_ RTR  --- 12 cbr 512 [0 0 0 0] ------- [18:0 20:0 32 0] [0] 0 0
s 5.000000000 _9_ AGT  --- 14 cbr 512 [0 0 0 0] ------- [9:0 11:0 32 0] [0] 0 0
r 5.000000000 _9_ RTR  --- 14 cbr 512 [0 0 0 0] ------- [9:0 11:0 32 0] [0] 0 0
s 5.000000000 _22_ AGT  --- 16 cbr 512 [0 0 0 0] ------- [22:0 19:0 32 0] [0] 0 0
r 5.000000000 _22_ RTR  --- 16 cbr 512 [0 0 0 0] ------- [22:0 19:0 32 0] [0] 0 0
s 5.000000000 _3_ AGT  --- 18 cbr 512 [0 0 0 0] ------- [3:0 30:0 32 0] [0] 0 0
r 5.000000000 _3_ RTR  --- 18 cbr 512 [0 0 0 0] ------- [3:0 30:0 32 0] [0] 0 0
s 5.000000000 _0_ AGT  --- 20 cbr 512 [0 0 0 0] ------- [0:0 24:0 32 0] [0] 0 0
r 5.000000000 _0_ RTR  --- 20 cbr 512 [0 0 0 0] ------- [0:0 24:0 32 0] [0] 0 0
s 5.000000000 _23_ AGT  --- 22 cbr 512 [0 0 0 0] ------- [23:0 28:0 32 0] [0] 0 0
r 5.000000000 _23_ RTR  --- 22 cbr 512 [0 0 0 0] ------- [23:0 28:0 32 0] [0] 0 0
s 5.000000000 _26_ AGT  --- 24 cbr 512 [0 0 0 0] ------- [26:0 10:0 32 0] [0] 0 0
r 5.000000000 _26_ RTR  --- 24 cbr 512 [0 0 0 0] ------- [26:0 10:0 32 0] [0] 0 0
s 5.000000000 _14_ AGT  --- 26 cbr 512 [0 0 0 0] ------- [14:0 12:0 32 0] [0] 0 0
r 5.000000000 _14_ RTR  --- 26 cbr 512 [0 0 0 0] ------- [14:0 12:0 32 0] [0] 0 0
s 5.000000000 _29_ AGT  --- 28 cbr 512 [0 0 0 0] ------- [29:0 1:0 32 0] [0] 0 0
r 5.000000000 _29_ RTR  --- 28 cbr 512 [0 0 0 0] ------- [29:0 1:0 32 0] [0] 0 0
s 5.000000000 _13_ AGT  --- 30 cbr 512 [0 0 0 0] ------- [13:0 27:0 32 0] [0] 0 0
r 5.000000000 _13_ RTR  --- 30 cbr 512 [0 0 0 0] ------- [13:0 27:0 32 0] [0] 0 0
s 5.000091526 _0_ RTR  --- 21 DSR 32 [0 0 0 0] ------- [0:255 24:255 32 0] 1 [1 1] [0 1 0 0->0] [0 0 0 0->0]
s 5.000600629 _7_ RTR  --- 1 DSR 32 [0 0 0 0] ------- [7:255 15:255 32 0] 1 [1 1] [0 1 0 0->0] [0 0 0 0->0]
s 5.000882653 _23_ RTR  --- 23 DSR 32 [0 0 0 0] ------- [23:255 28:255 32 0] 1 [1 1] [0 1 0 0->0] [0 0 0 0->0]
r 5.000991683 _2_ RTR  --- 21 DSR 32 [0 ffffffff 0 800] ------- [0:255 24:255 32 0] 1 [1 1] [0 1 0 0->0] [0 0 0 0->0]
r 5.000991700 _25_ RTR  --- 21 DSR 32 [0 ffffffff 0 800] ------- [0:255 24:255 32 0] 1 [1 1] [0 1 0 0->0] [0 0 0 0->0]
r 5.000991734 _31_ RTR  --- 21 DSR 32 [0 ffffffff 0 800] ------- [0:255 24:255 32 0] 1 [1 1] [0 1 0 0->0] [0 0 0 0->0]
r 5.000991814 _4_ RTR  --- 21 DSR 32 [0 ffffffff 0 800] ------- [0:255 24:255 32 0] 1 [1 1] [0 1 0 0->0] [0 0 0 0->0]
r 5.000991824 _1_ RTR  --- 21 DSR 32 [0 ffffffff 0 800] ------- [0:255 24:255 32 0] 1 [1 1] [0 1 0 0->0] [0 0 0 0->0]
r 5.000991856 _17_ RTR  --- 21 DSR 32 [0 ffffffff 0 800] ------- [0:255 24:255 32 0] 1 [1 1] [0 1 0 0->0] [0 0 0 0->0]
r 5.000991935 _22_ RTR  --- 21 DSR 32 [0 ffffffff 0 800] ------- [0:255 24:255 32 0] 1 [1 1] [0 1 0 0->0] [0 0 0 0->0]
r 5.000991946 _28_ RTR  --- 21 DSR 32 [0 ffffffff 0 800] ------- [0:255 24:255 32 0] 1 [1 1] [0 1 0 0->0] [0 0 0 0->0]
r 5.000992019 _21_ RTR  --- 21 DSR 32 [0 ffffffff 0 800] ------- [0:255 24:255 32 0] 1 [1 1] [0 1 0 0->0] [0 0 0 0->0]
r 5.000992034 _27_ RTR  --- 21 DSR 32 [0 ffffffff 0 800] ------- [0:255 24:255 32 0] 1 [1 1] [0 1 0 0->0] [0 0 0 0->0]
r 5.000992115 _13_ RTR  --- 21 DSR 32 [0 ffffffff 0 800] ------- [0:255 24:255 32 0] 1 [1 1] [0 1 0 0->0] [0 0 0 0->0]
r 5.000992152 _20_ RTR  --- 21 DSR 32 [0 ffffffff 0 800] ------- [0:255 24:255 32 0] 1 [1 1] [0 1 0 0->0] [0 0 0 0->0]
r 5.000992156 _11_ RTR  --- 21 DSR 32 [0 ffffffff 0 800] ------- [0:255 24:255 32 0] 1 [1 1] [0 1 0 0->0] [0 0 0 0->0]
r 5.000992284 _14_ RTR  --- 21 DSR 32 [0 ffffffff 0 800] ------- [0:255 24:255 32 0] 1 [1 1] [0 1 0 0->0] [0 0 0 0->0]
r 5.000992344 _6_ RTR  --- 21 DSR 32 [0 ffffffff 0 800] ------- [0:255 24:255 32 0] 1 [1 1] [0 1 0 0->0] [0 0 0 0->0]
s 5.001213058 _5_ RTR  --- 5 DSR 32 [0 0 0 0] ------- [5:255 16:255 32 0] 1 [1 1] [0 1 0 0->0] [0 0 0 0->0]
r 5.002166847 _9_ RTR  --- 5 DSR 32 [0 ffffffff 5 800] ------- [5:255 16:255 32 0] 1 [1 1] [0 1 0 0->0] [0 0 0 0->0]
r 5.002167093 _12_ RTR  --- 5 DSR 32 [0 ffffffff 5 800] ------- [5:255 16:255 32 0] 1 [1 1] [0 1 0 0->0] [0 0 0 0->0]
r 5.002167298 _24_ RTR  --- 5 DSR 32 [0 ffffffff 5 800] ------- [5:255 16:255 32 0] 1 [1 1] [0 1 0 0->0] [0 0 0 0->0]
r 5.002167383 _3_ RTR  --- 5 DSR 32 [0 ffffffff 5 800] ------- [5:255 16:255 32 0] 1 [1 1] [0 1 0 0->0] [0 0 0 0->0]
r 5.002167417 _7_ RTR  --- 5 DSR 32 [0 ffffffff 5 800] ------- [5:255 16:255 32 0] 1 [1 1] [0 1 0 0->0] [0 0 0 0->0]
r 5.002167445 _10_ RTR  --- 5 DSR 32 [0 ffffffff 5 800] ------- [5:255 16:255 32 0] 1 [1 1] [0 1 0 0->0] [0 0 0 0->0]
r 5.002167480 _14_ RTR  --- 5 DSR 32 [0 ffffffff 5 800] ------- [5:255 16:255 32 0] 1 [1 1] [0 1 0 0->0] [0 0 0 0->0]
r 5.002167510 _23_ RTR  --- 5 DSR 32 [0 ffffffff 5 800] ------- [5:255 16:255 32 0] 1 [1 1] [0 1 0 0->0] [0 0 0 0->0]
r 5.002167567 _26_ RTR  --- 5 DSR 32 [0 ffffffff 5 800] ------- [5:255 16:255 32 0] 1 [1 1] [0 1 0 0->0] [0 0 0 0->0]
r 5.002167611 _27_ RTR  --- 5 DSR 32 [0 ffffffff 5 800] ------- [5:255 16:255 32 0] 1 [1 1] [0 1 0 0->0] [0 0 0 0->0]
s 5.002828981 _9_ RTR  --- 15 DSR 32 [0 0 0 0] ------- [9:255 11:255 32 0] 1 [1 1] [0 1 0 0->0] [0 0 0 0->0]
s 5.002879745 _26_ RTR  --- 25 DSR 32 [0 0 0 0] ------- [26:255 10:255 32 0] 1 [1 1] [0 1 0 0->0] [0 0 0 0->0]
r 5.003117461 _3_ RTR  --- 1 DSR 32 [0 ffffffff 7 800] ------- [7:255 15:255 32 0] 1 [1 1] [0 1 0 0->0] [0 0 0 0->0]
r 5.003117511 _10_ RTR  --- 1 DSR 32 [0 ffffffff 7 800] ------- [7:255 15:255 32 0] 1 [1 1] [0 1 0 0->0] [0 0 0 0->0]
r 5.003117584 _23_ RTR  --- 1 DSR 32 [0 ffffffff 7 800] ------- [7:255 15:255 32 0] 1 [1 1] [0 1 0 0->0] [0 0 0 0->0]
r 5.003117627 _24_ RTR  --- 1 DSR 32 [0 ffffffff 7 800] ------- [7:255 15:255 32 0] 1 [1 1] [0 1 0 0->0] [0 0 0 0->0]
r 5.003117651 _26_ RTR  --- 1 DSR 32 [0 ffffffff 7 800] ------- [7:255 15:255 32 0] 1 [1 1] [0 1 0 0->0] [0 0 0 0->0]
r 5.003117897 _12_ RTR  --- 1 DSR 32 [0 ffffffff 7 800] ------- [7:255 15:255 32 0] 1 [1 1] [0 1 0 0->0] [0 0 0 0->0]
r 5.003117922 _8_ RTR  --- 1 DSR 32 [0 ffffffff 7 800] ------- [7:255 15:255 32 0] 1 [1 1] [0 1 0 0->0] [0 0 0 0->0]
r 5.003117993 _30_ RTR  --- 1 DSR 32 [0 ffffffff 7 800] ------- [7:255 15:255 32 0] 1 [1 1] [0 1 0 0->0] [0 0 0 0->0]
r 5.003117998 _9_ RTR  --- 1 DSR 32 [0 ffffffff 7 800] ------- [7:255 15:255 32 0] 1 [1 1] [0 1 0 0->0] [0 0 0 0->0]
r 5.003118008 _15_ RTR  --- 1 DSR 32 [0 ffffffff 7 800] ------- [7:255 15:255 32 0] 1 [1 1] [0 1 0 0->0] [0 0 0 0->0]
r 5.003118029 _5_ RTR  --- 1 DSR 32 [0 ffffffff 7 800] ------- [7:255 15:255 32 0] 1 [1 1] [0 1 0 0->0] [0 0 0 0->0]
r 5.003118172 _13_ RTR  --- 1 DSR 32 [0 ffffffff 7 800] ------- [7:255 15:255 32 0] 1 [1 1] [0 1 0 0->0] [0 0 0 0->0]
r 5.003118229 _16_ RTR  --- 1 DSR 32 [0 ffffffff 7 800] ------- [7:255 15:255 32 0] 1 [1 1] [0 1 0 0->0] [0 0 0 0->0]
r 5.003118237 _20_ RTR  --- 1 DSR 32 [0 ffffffff 7 800] ------- [7:255 15:255 32 0] 1 [1 1] [0 1 0 0->0] [0 0 0 0->0]
r 5.003118240 _27_ RTR  --- 1 DSR 32 [0 ffffffff 7 800] ------- [7:255 15:255 32 0] 1 [1 1] [0 1 0 0->0] [0 0 0 0->0]
r 5.003118242 _21_ RTR  --- 1 DSR 32 [0 ffffffff 7 800] ------- [7:255 15:255 32 0] 1 [1 1] [0 1 0 0->0] [0 0 0 0->0]
s 5.003175462 _6_ RTR  --- 7 DSR 32 [0 0 0 0] ------- [6:255 8:255 32 0] 1 [1 1] [0 1 0 0->0] [0 0 0 0->0]
s 5.003280110 _29_ RTR  --- 29 DSR 32 [0 0 0 0] ------- [29:255 1:255 32 0] 1 [1 1] [0 1 0 0->0] [0 0 0 0->0]
r 5.004247663 _10_ RTR  --- 23 DSR 32 [0 ffffffff 17 800] ------- [23:255 28:255 32 0] 1 [1 1] [0 1 0 0->0] [0 0 0 0->0]
r 5.004247750 _7_ RTR  --- 23 DSR 32 [0 ffffffff 17 800] ------- [23:255 28:255 32 0] 1 [1 1] [0 1 0 0->0] [0 0 0 0->0]
r 5.004247791 _3_ RTR  --- 23 DSR 32 [0 ffffffff 17 800] ------- [23:255 28:255 32 0] 1 [1 1] [0 1 0 0->0] [0 0 0 0->0]
r 5.004247932 _26_ RTR  --- 23 DSR 32 [0 ffffffff 17 800] ------- [23:255 28:255 32 0] 1 [1 1] [0 1 0 0->0] [0 0 0 0->0]
r 5.004247956 _24_ RTR  --- 23 DSR 32 [0 ffffffff 17 800] ------- [23:255 28:255 32 0] 1 [1 1] [0 1 0 0->0] [0 0 0 0->0]
r 5.004248185 _8_ RTR  --- 23 DSR 32 [0 ffffffff 17 800] ------- [23:255 28:255 32 0] 1 [1 1] [0 1 0 0->0] [0 0 0 0->0]
r 5.004248208 _12_ RTR  --- 23 DSR 32 [0 ffffffff 17 800] ------- [23:255 28:255 32 0] 1 [1 1] [0 1 0 0->0] [0 0 0 0->0]
r 5.004248265 _9_ RTR  --- 23 DSR 32 [0 ffffffff 17 800] ------- [23:255 28:255 32 0] 1 [1 1] [0 1 0 0->0] [0 0 0 0->0]
r 5.004248289 _5_ RTR  --- 23 DSR 32 [0 ffffffff 17 800] ------- [23:255 28:255 32 0] 1 [1 1] [0 1 0 0->0] [0 0 0 0->0]
r 5.004248293 _15_ RTR  --- 23 DSR 32 [0 ffffffff 17 800] ------- [23:255 28:255 32 0] 1 [1 1] [0 1 0 0->0] [0 0 0 0->0]
r 5.004248295 _30_ RTR  --- 23 DSR 32 [0 ffffffff 17 800] ------- [23:255 28:255 32 0] 1 [1 1] [0 1 0 0->0] [0 0 0 0->0]
r 5.005098307 _5_ RTR  --- 15 DSR 32 [0 ffffffff 9 800] ------- [9:255 11:255 32 0] 1 [1 1] [0 1 0 0->0] [0 0 0 0->0]
r 5.005098512 _12_ RTR  --- 15 DSR 32 [0 ffffffff 9 800] ------- [9:255 11:255 32 0] 1 [1 1] [0 1 0 0->0] [0 0 0 0->0]
r 5.005098720 _24_ RTR  --- 15 DSR 32 [0 ffffffff 9 800] ------- [9:255 11:255 32 0] 1 [1 1] [0 1 0 0->0] [0 0 0 0->0]
r 5.005098811 _3_ RTR  --- 15 DSR 32 [0 ffffffff 9 800] ------- [9:255 11:255 32 0] 1 [1 1] [0 1 0 0->0] [0 0 0 0->0]
r 5.005098846 _7_ RTR  --- 15 DSR 32 [0 ffffffff 9 800] ------- [9:255 11:255 32 0] 1 [1 1] [0 1 0 0->0] [0 0 0 0->0]
r 5.005098878 _10_ RTR  --- 15 DSR 32 [0 ffffffff 9 800] ------- [9:255 11:255 32 0] 1 [1 1] [0 1 0 0->0] [0 0 0 0->0]
r 5.005098924 _14_ RTR  --- 15 DSR 32 [0 ffffffff 9 800] ------- [9:255 11:255 32 0] 1 [1 1] [0 1 0 0->0] [0 0 0 0->0]
r 5.005098947 _23_ RTR  --- 15 DSR 32 [0 ffffffff 9 800] ------- [9:255 11:255 32 0] 1 [1 1] [0 1 0 0->0] [0 0 0 0->0]
r 5.005098989 _26_ RTR  --- 15 DSR 32 [0 ffffffff 9 800] ------- [9:255 11:255 32 0] 1 [1 1] [0 1 0 0->0] [0 0 0 0->0]
r 5.005099034 _27_ RTR  --- 15 DSR 32 [0 ffffffff 9 800] ------- [9:255 11:255 32 0] 1 [1 1] [0 1 0 0->0] [0 0 0 0->0]
s 5.005894741 _4_ RTR  --- 9 DSR 32 [0 0 0 0] ------- [4:255 21:255 32 0] 1 [1 1] [0 1 0 0->0] [0 0 0 0->0]
r 5.005989222 _3_ RTR  --- 25 DSR 32 [0 ffffffff 1a 800] ------- [26:255 10:255 32 0] 1 [1 1] [0 1 0 0->0] [0 0 0 0->0]
r 5.005989223 _7_ RTR  --- 25 DSR 32 [0 ffffffff 1a 800] ------- [26:255 10:255 32 0] 1 [1 1] [0 1 0 0->0] [0 0 0 0->0]
r 5.005989259 _24_ RTR  --- 25 DSR 32 [0 ffffffff 1a 800] ------- [26:255 10:255 32 0] 1 [1 1] [0 1 0 0->0] [0 0 0 0->0]
r 5.005989261 _8_ RTR  --- 25 DSR 32 [0 ffffffff 1a 800] ------- [26:255 10:255 32 0] 1 [1 1] [0 1 0 0->0] [0 0 0 0->0]
r 5.005989297 _10_ RTR  --- 25 DSR 32 [0 ffffffff 1a 800] ------- [26:255 10:255 32 0] 1 [1 1] [0 1 0 0->0] [0 0 0 0->0]
r 5.005989338 _23_ RTR  --- 25 DSR 32 [0 ffffffff 1a 800] ------- [26:255 10:255 32 0] 1 [1 1] [0 1 0 0->0] [0 0 0 0->0]
r 5.005989352 _15_ RTR  --- 25 DSR 32 [0 ffffffff 1a 800] ------- [26:255 10:255 32 0] 1 [1 1] [0 1 0 0->0] [0 0 0 0->0]
r 5.005989353 _30_ RTR  --- 25 DSR 32 [0 ffffffff 1a 800] ------- [26:255 10:255 32 0] 1 [1 1] [0 1 0 0->0] [0 0 0 0->0]
r 5.005989539 _12_ RTR  --- 25 DSR 32 [0 ffffffff 1a 800] ------- [26:255 10:255 32 0] 1 [1 1] [0 1 0 0->0] [0 0 0 0->0]
r 5.005989570 _16_ RTR  --- 25 DSR 32 [0 ffffffff 1a 800] ------- [26:255 10:255 32 0] 1 [1 1] [0 1 0 0->0] [0 0 0 0->0]
r 5.005989581 _13_ RTR  --- 25 DSR 32 [0 ffffffff 1a 800] ------- [26:255 10:255 32 0] 1 [1 1] [0 1 0 0->0] [0 0 0 0->0]
r 5.005989613 _20_ RTR  --- 25 DSR 32 [0 ffffffff 1a 800] ------- [26:255 10:255 32 0] 1 [1 1] [0 1 0 0->0] [0 0 0 0->0]
r 5.005989682 _21_ RTR  --- 25 DSR 32 [0 ffffffff 1a 800] ------- [26:255 10:255 32 0] 1 [1 1] [0 1 0 0->0] [0 0 0 0->0]
r 5.005989706 _27_ RTR  --- 25 DSR 32 [0 ffffffff 1a 800] ------- [26:255 10:255 32 0] 1 [1 1] [0 1 0 0->0] [0 0 0 0->0]
r 5.005989713 _9_ RTR  --- 25 DSR 32 [0 ffffffff 1a 800] ------- [26:255 10:255 32 0] 1 [1 1] [0 1 0 0->0] [0 0 0 0->0]
r 5.005989732 _19_ RTR  --- 25 DSR 32 [0 ffffffff 1a 800] ------- [26:255 10:255 32 0] 1 [1 1] [0 1 0 0->0] [0 0 0 0->0]
r 5.005989733 _11_ RTR  --- 25 DSR 32 [0 ffffffff 1a 800] ------- [26:255 10:255 32 0] 1 [1 1] [0 1 0 0->0] [0 0 0 0->0]
r 5.005989750 _5_ RTR  --- 25 DSR 32 [0 ffffffff 1a 800] ------- [26:255 10:255 32 0] 1 [1 1] [0 1 0 0->0] [0 0 0 0->0]
s 5.006125061 _14_ RTR  --- 27 DSR 32 [0 0 0 0] ------- [14:255 12:255 32 0] 1 [1 1] [0 1 0 0->0] [0 0 0 0->0]
s 5.006339506 _13_ RTR  --- 31 DSR 32 [0 0 0 0] ------- [13:255 27:255 32 0] 1 [1 1] [0 1 0 0->0] [0 0 0 0->0]
s 5.006569939 _25_ RTR  --- 3 DSR 32 [0 0 0 0] ------- [25:255 31:255 32 0] 1 [1 1] [0 1 0 0->0] [0 0 0 0->0]
r 5.007124090 _31_ RTR  --- 9 DSR 32 [0 ffffffff 4 800] ------- [4:255 21:255 32 0] 1 [1 1] [0 1 0 0->0] [0 0 0 0->0]
r 5.007124122 _25_ RTR  --- 9 DSR 32 [0 ffffffff 4 800] ------- [4:255 21:255 32 0] 1 [1 1] [0 1 0 0->0] [0 0 0 0->0]
r 5.007124256 _22_ RTR  --- 9 DSR 32 [0 ffffffff 4 800] ------- [4:255 21:255 32 0] 1 [1 1] [0 1 0 0->0] [0 0 0 0->0]
r 5.007124272 _0_ RTR  --- 9 DSR 32 [0 ffffffff 4 800] ------- [4:255 21:255 32 0] 1 [1 1] [0 1 0 0->0] [0 0 0 0->0]
r 5.007124335 _2_ RTR  --- 9 DSR 32 [0 ffffffff 4 800] ------- [4:255 21:255 32 0] 1 [1 1] [0 1 0 0->0] [0 0 0 0->0]
r 5.007124336 _11_ RTR  --- 9 DSR 32 [0 ffffffff 4 800] ------- [4:255 21:255 32 0] 1 [1 1] [0 1 0 0->0] [0 0 0 0->0]
r 5.007124370 _20_ RTR  --- 9 DSR 32 [0 ffffffff 4 800] ------- [4:255 21:255 32 0] 1 [1 1] [0 1 0 0->0] [0 0 0 0->0]
r 5.007124376 _21_ RTR  --- 9 DSR 32 [0 ffffffff 4 800] ------- [4:255 21:255 32 0] 1 [1 1] [0 1 0 0->0] [0 0 0 0->0]
r 5.007124399 _13_ RTR  --- 9 DSR 32 [0 ffffffff 4 800] ------- [4:255 21:255 32 0] 1 [1 1] [0 1 0 0->0] [0 0 0 0->0]
r 5.007124418 _1_ RTR  --- 9 DSR 32 [0 ffffffff 4 800] ------- [4:255 21:255 32 0] 1 [1 1] [0 1 0 0->0] [0 0 0 0->0]
r 5.007124444 _27_ RTR  --- 9 DSR 32 [0 ffffffff 4 800] ------- [4:255 21:255 32 0] 1 [1 1] [0 1 0 0->0] [0 0 0 0->0]
r 5.007124493 _17_ RTR  --- 9 DSR 32 [0 ffffffff 4 800] ------- [4:255 21:255 32 0] 1 [1 1] [0 1 0 0->0] [0 0 0 0->0]
r 5.007124531 _28_ RTR  --- 9 DSR 32 [0 ffffffff 4 800] ------- [4:255 21:255 32 0] 1 [1 1] [0 1 0 0->0] [0 0 0 0->0]
r 5.007124551 _19_ RTR  --- 9 DSR 32 [0 ffffffff 4 800] ------- [4:255 21:255 32 0] 1 [1 1] [0 1 0 0->0] [0 0 0 0->0]
r 5.007124631 _30_ RTR  --- 9 DSR 32 [0 ffffffff 4 800] ------- [4:255 21:255 32 0] 1 [1 1] [0 1 0 0->0] [0 0 0 0->0]
r 5.007124689 _15_ RTR  --- 9 DSR 32 [0 ffffffff 4 800] ------- [4:255 21:255 32 0] 1 [1 1] [0 1 0 0->0] [0 0 0 0->0]
r 5.007124812 _16_ RTR  --- 9 DSR 32 [0 ffffffff 4 800] ------- [4:255 21:255 32 0] 1 [1 1] [0 1 0 0->0] [0 0 0 0->0]
s 5.007431755 _18_ RTR  --- 13 DSR 32 [0 0 0 0] ------- [18:255 20:255 32 0] 1 [1 1] [0 1 0 0->0] [0 0 0 0->0]
s 5.007573395 _17_ RTR  --- 11 DSR 32 [0 0 0 0] ------- [17:255 2:255 32 0] 1 [1 1] [0 1 0 0->0] [0 0 0 0->0]
r 5.007934546 _21_ RTR  --- 31 DSR 32 [0 ffffffff d 800] ------- [13:255 27:255 32 0] 1 [1 1] [0 1 0 0->0] [0 0 0 0->0]
r 5.007934564 _20_ RTR  --- 31 DSR 32 [0 ffffffff d 800] ------- [13:255 27:255 32 0] 1 [1 1] [0 1 0 0->0] [0 0 0 0->0]
r 5.007934633 _27_ RTR  --- 31 DSR 32 [0 ffffffff d 800] ------- [13:255 27:255 32 0] 1 [1 1] [0 1 0 0->0] [0 0 0 0->0]
r 5.007934685 _30_ RTR  --- 31 DSR 32 [0 ffffffff d 800] ------- [13:255 27:255 32 0] 1 [1 1] [0 1 0 0->0] [0 0 0 0->0]
r 5.007934714 _11_ RTR  --- 31 DSR 32 [0 ffffffff d 800] ------- [13:255 27:255 32 0] 1 [1 1] [0 1 0 0->0] [0 0 0 0->0]
r 5.007934776 _15_ RTR  --- 31 DSR 32 [0 ffffffff d 800] ------- [13:255 27:255 32 0] 1 [1 1] [0 1 0 0->0] [0 0 0 0->0]
r 5.007934807 _31_ RTR  --- 31 DSR 32 [0 ffffffff d 800] ------- [13:255 27:255 32 0] 1 [1 1] [0 1 0 0->0] [0 0 0 0->0]
r 5.007934814 _4_ RTR  --- 31 DSR 32 [0 ffffffff d 800] ------- [13:255 27:255 32 0] 1 [1 1] [0 1 0 0->0] [0 0 0 0->0]
r 5.007934897 _19_ RTR  --- 31 DSR 32 [0 ffffffff d 800] ------- [13:255 27:255 32 0] 1 [1 1] [0 1 0 0->0] [0 0 0 0->0]
r 5.007934903 _8_ RTR  --- 31 DSR 32 [0 ffffffff d 800] ------- [13:255 27:255 32 0] 1 [1 1] [0 1 0 0->0] [0 0 0 0->0]
r 5.007934917 _28_ RTR  --- 31 DSR 32 [0 ffffffff d 800] ------- [13:255 27:255 32 0] 1 [1 1] [0 1 0 0->0] [0 0 0 0->0]
r 5.007934925 _25_ RTR  --- 31 DSR 32 [0 ffffffff d 800] ------- [13:255 27:255 32 0] 1 [1 1] [0 1 0 0->0] [0 0 0 0->0]
r 5.007934926 _2_ RTR  --- 31 DSR 32 [0 ffffffff d 800] ------- [13:255 27:255 32 0] 1 [1 1] [0 1 0 0->0] [0 0 0 0->0]
r 5.007934970 _17_ RTR  --- 31 DSR 32 [0 ffffffff d 800] ------- [13:255 27:255 32 0] 1 [1 1] [0 1 0 0->0] [0 0 0 0->0]
r 5.007934988 _0_ RTR  --- 31 DSR 32 [0 ffffffff d 800] ------- [13:255 27:255 32 0] 1 [1 1] [0 1 0 0->0] [0 0 0 0->0]
r 5.007934992 _26_ RTR  --- 31 DSR 32 [0 ffffffff d 800] ------- [13:255 27:255 32 0] 1 [1 1] [0 1 0 0->0] [0 0 0 0->0]
r 5.007934997 _24_ RTR  --- 31 DSR 32 [0 ffffffff d 800] ------- [13:255 27:255 32 0] 1 [1 1] [0 1 0 0->0] [0 0 0 0->0]
r 5.007935020 _16_ RTR  --- 31 DSR 32 [0 ffffffff d 800] ------- [13:255 27:255 32 0] 1 [1 1] [0 1 0 0->0] [0 0 0 0->0]
r 5.007935023 _12_ RTR  --- 31 DSR 32 [0 ffffffff d 800] ------- [13:255 27:255 32 0] 1 [1 1] [0 1 0 0->0] [0 0 0 0->0]
r 5.007935069 _22_ RTR  --- 31 DSR 32 [0 ffffffff d 800] ------- [13:255 27:255 32 0] 1 [1 1] [0 1 0 0->0] [0 0 0 0->0]
r 5.007935124 _3_ RTR  --- 31 DSR 32 [0 ffffffff d 800] ------- [13:255 27:255 32 0] 1 [1 1] [0 1 0 0->0] [0 0 0 0->0]
r 5.007935138 _14_ RTR  --- 31 DSR 32 [0 ffffffff d 800] ------- [13:255 27:255 32 0] 1 [1 1] [0 1 0 0->0] [0 0 0 0->0]
r 5.007935155 _7_ RTR  --- 31 DSR 32 [0 ffffffff d 800] ------- [13:255 27:255 32 0] 1 [1 1] [0 1 0 0->0] [0 0 0 0->0]
r 5.007935229 _1_ RTR  --- 31 DSR 32 [0 ffffffff d 800] ------- [13:255 27:255 32 0] 1 [1 1] [0 1 0 0->0] [0 0 0 0->0]
s 5.008185278 _3_ RTR  --- 19 DSR 32 [0 0 0 0] ------- [3:255 30:255 32 0] 1 [1 1] [0 1 0 0->0] [0 0 0 0->0]
s 5.008908880 _22_ RTR  --- 17 DSR 32 [0 0 0 0] ------- [22:255 19:255 32 0] 1 [1 1] [0 1 0 0->0] [0 0 0 0->0]
r 5.008925049 _31_ RTR  --- 3 DSR 32 [0 ffffffff 19 800] ------- [25:255 31:255 32 0] 1 [1 1] [0 1 0 0->0] [0 0 0 0->0]
r 5.008925063 _4_ RTR  --- 3 DSR 32 [0 ffffffff 19 800] ------- [25:255 31:255 32 0] 1 [1 1] [0 1 0 0->0] [0 0 0 0->0]
r 5.008925098 _0_ RTR  --- 3 DSR 32 [0 ffffffff 19 800] ------- [25:255 31:255 32 0] 1 [1 1] [0 1 0 0->0] [0 0 0 0->0]
r 5.008925180 _22_ RTR  --- 3 DSR 32 [0 ffffffff 19 800] ------- [25:255 31:255 32 0] 1 [1 1] [0 1 0 0->0] [0 0 0 0->0]
r 5.008925211 _2_ RTR  --- 3 DSR 32 [0 ffffffff 19 800] ------- [25:255 31:255 32 0] 1 [1 1] [0 1 0 0->0] [0 0 0 0->0]
r 5.008925230 _1_ RTR  --- 3 DSR 32 [0 ffffffff 19 800] ------- [25:255 31:255 32 0] 1 [1 1] [0 1 0 0->0] [0 0 0 0->0]
r 5.008925387 _17_ RTR  --- 3 DSR 32 [0 ffffffff 19 800] ------- [25:255 31:255 32 0] 1 [1 1] [0 1 0 0->0] [0 0 0 0->0]
r 5.008925396 _21_ RTR  --- 3 DSR 32 [0 ffffffff 19 800] ------- [25:255 31:255 32 0] 1 [1 1] [0 1 0 0->0] [0 0 0 0->0]
r 5.008925415 _11_ RTR  --- 3 DSR 32 [0 ffffffff 19 800] ------- [25:255 31:255 32 0] 1 [1 1] [0 1 0 0->0] [0 0 0 0->0]
r 5.008925444 _27_ RTR  --- 3 DSR 32 [0 ffffffff 19 800] ------- [25:255 31:255 32 0] 1 [1 1] [0 1 0 0->0] [0 0 0 0->0]
r 5.008925444 _20_ RTR  --- 3 DSR 32 [0 ffffffff 19 800] ------- [25:255 31:255 32 0] 1 [1 1] [0 1 0 0->0] [0 0 0 0->0]
r 5.008925451 _13_ RTR  --- 3 DSR 32 [0 ffffffff 19 800] ------- [25:255 31:255 32 0] 1 [1 1] [0 1 0 0->0] [0 0 0 0->0]
r 5.008925453 _28_ RTR  --- 3 DSR 32 [0 ffffffff 19 800] ------- [25:255 31:255 32 0] 1 [1 1] [0 1 0 0->0] [0 0 0 0->0]
r 5.008925626 _19_ RTR  --- 3 DSR 32 [0 ffffffff 19 800] ------- [25:255 31:255 32 0] 1 [1 1] [0 1 0 0->0] [0 0 0 0->0]
r 5.008925701 _30_ RTR  --- 3 DSR 32 [0 ffffffff 19 800] ------- [25:255 31:255 32 0] 1 [1 1] [0 1 0 0->0] [0 0 0 0->0]
s 5.009142857 _7_ AGT  --- 39 cbr 512 [0 0 0 0] ------- [7:0 15:0 32 0] [1] 0 0
r 5.009142857 _7_ RTR  --- 39 cbr 512 [0 0 0 0] ------- [7:0 15:0 32 0] [1] 0 0
s 5.009142857 _25_ AGT  --- 41 cbr 512 [0 0 0 0] ------- [25:0 31:0 32 0] [1] 0 0
r 5.009142857 _25_ RTR  --- 41 cbr 512 [0 0 0 0] ------- [25:0 31:0 32 0] [1] 0 0
s 5.009142857 _5_ AGT  --- 43 cbr 512 [0 0 0 0] ------- [5:0 16:0 32 0] [1] 0 0
r 5.009142857 _5_ RTR  --- 43 cbr 512 [0 0 0 0] ------- [5:0 16:0 32 0] [1] 0 0
s 5.009142857 _6_ AGT  --- 45 cbr 512 [0 0 0 0] ------- [6:0 8:0 32 0] [1] 0 0
r 5.009142857 _6_ RTR  --- 45 cbr 512 [0 0 0 0] ------- [6:0 8:0 32 0] [1] 0 0
s 5.009142857 _4_ AGT  --- 47 cbr 512 [0 0 0 0] ------- [4:0 21:0 32 0] [1] 0 0
r 5.009142857 _4_ RTR  --- 47 cbr 512 [0 0 0 0] ------- [4:0 21:0 32 0] [1] 0 0
s 5.009142857 _17_ AGT  --- 49 cbr 512 [0 0 0 0] ------- [17:0 2:0 32 0] [1] 0 0
r 5.009142857 _17_ RTR  --- 49 cbr 512 [0 0 0 0] ------- [17:0 2:0 32 0] [1] 0 0
s 5.009142857 _18_ AGT  --- 51 cbr 512 [0 0 0 0] ------- [18:0 20:0 32 0] [1] 0 0
r 5.009142857 _18_ RTR  --- 51 cbr 512 [0 0 0 0] ------- [18:0 20:0 32 0] [1] 0 0
s 5.009142857 _9_ AGT  --- 53 cbr 512 [0 0 0 0] ------- [9:0 11:0 32 0] [1] 0 0
r 5.009142857 _9_ RTR  --- 53 cbr 512 [0 0 0 0] ------- [9:0 11:0 32 0] [1] 0 0
s 5.009142857 _22_ AGT  --- 55 cbr 512 [0 0 0 0] ------- [22:0 19:0 32 0] [1] 0 0
r 5.009142857 _22_ RTR  --- 55 cbr 512 [0 0 0 0] ------- [22:0 19:0 32 0] [1] 0 0
s 5.009142857 _3_ AGT  --- 57 cbr 512 [0 0 0 0] ------- [3:0 30:0 32 0] [1] 0 0
r 5.009142857 _3_ RTR  --- 57 cbr 512 [0 0 0 0] ------- [3:0 30:0 32 0] [1] 0 0
s 5.009142857 _0_ AGT  --- 59 cbr 512 [0 0 0 0] ------- [0:0 24:0 32 0] [1] 0 0
r 5.009142857 _0_ RTR  --- 59 cbr 512 [0 0 0 0] ------- [0:0 24:0 32 0] [1] 0 0
s 5.009142857 _23_ AGT  --- 61 cbr 512 [0 0 0 0] ------- [23:0 28:0 32 0] [1] 0 0
r 5.009142857 _23_ RTR  --- 61 cbr 512 [0 0 0 0] ------- [23:0 28:0 32 0] [1] 0 0
s 5.009142857 _26_ AGT  --- 63 cbr 512 [0 0 0 0] ------- [26:0 10:0 32 0] [1] 0 0
r 5.009142857 _26_ RTR  --- 63 cbr 512 [0 0 0 0] ------- [26:0 10:0 32 0] [1] 0 0
s 5.009142857 _14_ AGT  --- 65 cbr 512 [0 0 0 0] ------- [14:0 12:0 32 0] [1] 0 0
r 5.009142857 _14_ RTR  --- 65 cbr 512 [0 0 0 0] ------- [14:0 12:0 32 0] [1] 0 0
s 5.009142857 _29_ AGT  --- 67 cbr 512 [0 0 0 0] ------- [29:0 1:0 32 0] [1] 0 0
r 5.009142857 _29_ RTR  --- 67 cbr 512 [0 0 0 0] ------- [29:0 1:0 32 0] [1] 0 0
s 5.009142857 _13_ AGT  --- 69 cbr 512 [0 0 0 0] ------- [13:0 27:0 32 0] [1] 0 0
r 5.009142857 _13_ RTR  --- 69 cbr 512 [0 0 0 0] ------- [13:0 27:0 32 0] [1] 0 0
r 5.009729135 _25_ RTR  --- 17 DSR 32 [0 ffffffff 16 800] ------- [22:255 19:255 32 0] 1 [1 1] [0 1 0 0->0] [0 0 0 0->0]
r 5.009729152 _4_ RTR  --- 17 DSR 32 [0 ffffffff 16 800] ------- [22:255 19:255 32 0] 1 [1 1] [0 1 0 0->0] [0 0 0 0->0]
r 5.009729215 _1_ RTR  --- 17 DSR 32 [0 ffffffff 16 800] ------- [22:255 19:255 32 0] 1 [1 1] [0 1 0 0->0] [0 0 0 0->0]
r 5.009729226 _31_ RTR  --- 17 DSR 32 [0 ffffffff 16 800] ------- [22:255 19:255 32 0] 1 [1 1] [0 1 0 0->0] [0 0 0 0->0]
r 5.009729288 _0_ RTR  --- 17 DSR 32 [0 ffffffff 16 800] ------- [22:255 19:255 32 0] 1 [1 1] [0 1 0 0->0] [0 0 0 0->0]
r 5.009729381 _11_ RTR  --- 17 DSR 32 [0 ffffffff 16 800] ------- [22:255 19:255 32 0] 1 [1 1] [0 1 0 0->0] [0 0 0 0->0]
r 5.009729420 _2_ RTR  --- 17 DSR 32 [0 ffffffff 16 800] ------- [22:255 19:255 32 0] 1 [1 1] [0 1 0 0->0] [0 0 0 0->0]
r 5.009729479 _20_ RTR  --- 17 DSR 32 [0 ffffffff 16 800] ------- [22:255 19:255 32 0] 1 [1 1] [0 1 0 0->0] [0 0 0 0->0]
r 5.009729531 _19_ RTR  --- 17 DSR 32 [0 ffffffff 16 800] ------- [22:255 19:255 32 0] 1 [1 1] [0 1 0 0->0] [0 0 0 0->0]
r 5.009729542 _21_ RTR  --- 17 DSR 32 [0 ffffffff 16 800] ------- [22:255 19:255 32 0] 1 [1 1] [0 1 0 0->0] [0 0 0 0->0]
r 5.009729550 _13_ RTR  --- 17 DSR 32 [0 ffffffff 16 800] ------- [22:255 19:255 32 0] 1 [1 1] [0 1 0 0->0] [0 0 0 0->0]
r 5.009729597 _17_ RTR  --- 17 DSR 32 [0 ffffffff 16 800] ------- [22:255 19:255 32 0] 1 [1 1] [0 1 0 0->0] [0 0 0 0->0]
r 5.009729612 _27_ RTR  --- 17 DSR 32 [0 ffffffff 16 800] ------- [22:255 19:255 32 0] 1 [1 1] [0 1 0 0->0] [0 0 0 0->0]
r 5.009729661 _28_ RTR  --- 17 DSR 32 [0 ffffffff 16 800] ------- [22:255 19:255 32 0] 1 [1 1] [0 1 0 0->0] [0 0 0 0->0]
s 5.009775504 _19_ RTR  --- 71 DSR 44 [0 0 0 0] ------- [19:255 22:255 254 22] 2 [0 1] [1 1 2 22->19] [0 0 0 0->0]
s 5.010625679 _27_ RTR  --- 37 DSR 44 [0 0 0 0] ------- [27:255 13:255 254 13] 2 [0 1] [1 1 2 13->27] [0 0 0 0->0]
s 5.010812694 _10_ RTR  --- 35 DSR 44 [0 0 0 0] ------- [10:255 26:255 254 26] 2 [0 1] [1 1 2 26->10] [0 0 0 0->0]
s 5.010831647 _15_ RTR  --- 32 DSR 44 [0 0 0 0] ------- [15:255 7:255 254 7] 2 [0 1] [1 1 2 7->15] [0 0 0 0->0]
s 5.011256432 _31_ RTR  --- 38 DSR 44 [0 0 0 0] ------- [31:255 25:255 254 25] 2 [0 1] [1 1 2 25->31] [0 0 0 0->0]
r 5.011394418 _19_ RTR  --- 13 DSR 32 [0 ffffffff 12 800] ------- [18:255 20:255 32 0] 1 [1 1] [0 1 0 0->0] [0 0 0 0->0]
r 5.011394460 _16_ RTR  --- 13 DSR 32 [0 ffffffff 12 800] ------- [18:255 20:255 32 0] 1 [1 1] [0 1 0 0->0] [0 0 0 0->0]
r 5.011394631 _11_ RTR  --- 13 DSR 32 [0 ffffffff 12 800] ------- [18:255 20:255 32 0] 1 [1 1] [0 1 0 0->0] [0 0 0 0->0]
r 5.011394724 _15_ RTR  --- 13 DSR 32 [0 ffffffff 12 800] ------- [18:255 20:255 32 0] 1 [1 1] [0 1 0 0->0] [0 0 0 0->0]
r 5.011394769 _8_ RTR  --- 13 DSR 32 [0 ffffffff 12 800] ------- [18:255 20:255 32 0] 1 [1 1] [0 1 0 0->0] [0 0 0 0->0]
r 5.011779115 _6_ RTR  --- 29 DSR 32 [0 ffffffff 1d 800] ------- [29:255 1:255 32 0] 1 [1 1] [0 1 0 0->0] [0 0 0 0->0]
r 5.012649184 _29_ RTR  --- 7 DSR 32 [0 ffffffff 6 800] ------- [6:255 8:255 32 0] 1 [1 1] [0 1 0 0->0] [0 0 0 0->0]
r 5.012649466 _14_ RTR  --- 7 DSR 32 [0 ffffffff 6 800] ------- [6:255 8:255 32 0] 1 [1 1] [0 1 0 0->0] [0 0 0 0->0]
r 5.012649625 _28_ RTR  --- 7 DSR 32 [0 ffffffff 6 800] ------- [6:255 8:255 32 0] 1 [1 1] [0 1 0 0->0] [0 0 0 0->0]
r 5.012649636 _17_ RTR  --- 7 DSR 32 [0 ffffffff 6 800] ------- [6:255 8:255 32 0] 1 [1 1] [0 1 0 0->0] [0 0 0 0->0]
r 5.012649804 _2_ RTR  --- 7 DSR 32 [0 ffffffff 6 800] ------- [6:255 8:255 32 0] 1 [1 1] [0 1 0 0->0] [0 0 0 0->0]
r 5.012649894 _27_ RTR  --- 7 DSR 32 [0 ffffffff 6 800] ------- [6:255 8:255 32 0] 1 [1 1] [0 1 0 0->0] [0 0 0 0->0]
r 5.012649933 _0_ RTR  --- 7 DSR 32 [0 ffffffff 6 800] ------- [6:255 8:255 32 0] 1 [1 1] [0 1 0 0->0] [0 0 0 0->0]
r 5.013499753 _28_ RTR  --- 11 DSR 32 [0 ffffffff 11 800] ------- [17:255 2:255 32 0] 1 [1 1] [0 1 0 0->0] [0 0 0 0->0]
r 5.013499814 _2_ RTR  --- 11 DSR 32 [0 ffffffff 11 800] ------- [17:255 2:255 32 0] 1 [1 1] [0 1 0 0->0] [0 0 0 0->0]
r 5.013499966 _0_ RTR  --- 11 DSR 32 [0 ffffffff 11 800] ------- [17:255 2:255 32 0] 1 [1 1] [0 1 0 0->0] [0 0 0 0->0]
r 5.013500010 _27_ RTR  --- 11 DSR 32 [0 ffffffff 11 800] ------- [17:255 2:255 32 0] 1 [1 1] [0 1 0 0->0] [0 0 0 0->0]
r 5.013500040 _31_ RTR  --- 11 DSR 32 [0 ffffffff 11 800] ------- [17:255 2:255 32 0] 1 [1 1] [0 1 0 0->0] [0 0 0 0->0]
r 5.013500063 _21_ RTR  --- 11 DSR 32 [0 ffffffff 11 800] ------- [17:255 2:255 32 0] 1 [1 1] [0 1 0 0->0] [0 0 0 0->0]
r 5.013500066 _14_ RTR  --- 11 DSR 32 [0 ffffffff 11 800] ------- [17:255 2:255 32 0] 1 [1 1] [0 1 0 0->0] [0 0 0 0->0]
r 5.013500098 _25_ RTR  --- 11 DSR 32 [0 ffffffff 11 800] ------- [17:255 2:255 32 0] 1 [1 1] [0 1 0 0->0] [0 0 0 0->0]