n -t * -s 0  -x 361 -y 372 -Z 0 -z 20  -v circle -c black
n -t * -s 1  -x 385 -y 458 -Z 0 -z 20  -v circle -c black
n -t * -s 2  -x 361 -y 325 -Z 0 -z 20  -v circle -c black
n -t * -s 3  -x 87 -y 102 -Z 0 -z 20  -v circle -c black
n -t * -s 4  -x 276 -y 387 -Z 0 -z 20  -v circle -c black
n -t * -s 5  -x 234 -y 10 -Z 0 -z 20  -v circle -c black
n -t * -s 6  -x 488 -y 162 -Z 0 -z 20  -v circle -c black
n -t * -s 7  -x 74 -y 100 -Z 0 -z 20  -v circle -c black
n -t * -s 8  -x 61 -y 251 -Z 0 -z 20  -v circle -c black
n -t * -s 9  -x 230 -y 22 -Z 0 -z 20  -v circle -c black
n -t * -s 10  -x 55 -y 79 -Z 0 -z 20  -v circle -c black
n -t * -s 11  -x 172 -y 369 -Z 0 -z 20  -v circle -c black
n -t * -s 12  -x 218 -y 95 -Z 0 -z 20  -v circle -c black
n -t * -s 13  -x 209 -y 282 -Z 0 -z 20  -v circle -c black
n -t * -s 14  -x 384 -y 146 -Z 0 -z 20  -v circle -c black
n -t * -s 15  -x 96 -y 276 -Z 0 -z 20  -v circle -c black
n -t * -s 16  -x 32 -y 340 -Z 0 -z 20  -v circle -c black
n -t * -s 17  -x 380 -y 275 -Z 0 -z 20  -v circle -c black
n -t * -s 18  -x 10 -y 488 -Z 0 -z 20  -v circle -c black
n -t * -s 19  -x 106 -y 390 -Z 0 -z 20  -v circle -c black
n -t * -s 20  -x 180 -y 322 -Z 0 -z 20  -v circle -c black
n -t * -s 21  -x 252 -y 272 -Z 0 -z 20  -v circle -c black
n -t * -s 22  -x 285 -y 468 -Z 0 -z 20  -v circle -c black
n -t * -s 23  -x 32 -y 73 -Z 0 -z 20  -v circle -c black
n -t * -s 24  -x 134 -y 119 -Z 0 -z 20  -v circle -c black
n -t * -s 25  -x 316 -y 398 -Z 0 -z 20  -v circle -c black
n -t * -s 26  -x 71 -y 170 -Z 0 -z 20  -v circle -c black
n -t * -s 27  -x 271 -y 249 -Z 0 -z 20  -v circle -c black
n -t * -s 28  -x 360 -y 246 -Z 0 -z 20  -v circle -c black
n -t * -s 29  -x 498 -y 144 -Z 0 -z 20  -v circle -c black
n -t * -s 30  -x 125 -y 265 -Z 0 -z 20  -v circle -c black
n -t * -s 31  -x 299 -y 365 -Z 0 -z 20  -v circle -c black
V -t * -v 1.0a5 -a 0
W -t * -x 500 -y 500
A -t * -n 1 -p 0 -o 0x7fffffff -c 30 -a 1
A -t * -h 1 -m 1073741823 -s 0
n -t 0 -s 0 -S DLABEL -l "Source01" -L ""
n -t 0 -s 1 -S DLABEL -l "Source02" -L ""
n -t 0 -s 2 -S DLABEL -l "Sink01" -L ""
n -t 0 -s 3 -S DLABEL -l "Sink02" -L ""
n -t 0 -s 5 -S DLABEL -l "N5" -L ""
n -t 0 -s 6 -S DLABEL -l "N6" -L ""
n -t 0 -s 7 -S DLABEL -l "N7" -L ""
n -t 0 -s 8 -S DLABEL -l "N8" -L ""
n -t 0 -s 9 -S DLABEL -l "N9" -L ""
n -t 0 -s 10 -S DLABEL -l "N10" -L ""
n -t 0 -s 11 -S DLABEL -l "N11" -L ""
n -t 0 -s 12 -S DLABEL -l "N12" -L ""
n -t 0 -s 13 -S DLABEL -l "N13" -L ""
n -t 0 -s 14 -S DLABEL -l "N14" -L ""
n -t 0 -s 15 -S DLABEL -l "N15" -L ""
n -t 0 -s 16 -S DLABEL -l "N16" -L ""
n -t 0 -s 17 -S DLABEL -l "N17" -L ""
n -t 0 -s 18 -S DLABEL -l "N18" -L ""
n -t 0 -s 19 -S DLABEL -l "N19" -L ""
n -t 0 -s 20 -S DLABEL -l "N20" -L ""
n -t 0 -s 21 -S DLABEL -l "N21" -L ""
n -t 0 -s 22 -S DLABEL -l "N22" -L ""
n -t 0 -s 23 -S DLABEL -l "N23" -L ""
n -t 0 -s 24 -S DLABEL -l "N24" -L ""
n -t 0 -s 25 -S DLABEL -l "N25" -L ""
n -t 0 -s 26 -S DLABEL -l "N26" -L ""
n -t 0 -s 27 -S DLABEL -l "N27" -L ""
n -t 0 -s 28 -S DLABEL -l "N28" -L ""
n -t 0 -s 29 -S DLABEL -l "N29" -L ""
n -t 0 -s 30 -S DLABEL -l "N30" -L ""
n -t 0 -s 31 -S DLABEL -l "N31" -L ""
n -t 5.000000 -s 0 -x 361.000000 -y 372.000000 -U -1.401754 -V 1.426564 -T 80.613274
n -t 5.000000 -s 1 -x 385.000000 -y 458.000000 -U -1.995335 -V -0.136523 -T 190.444218
n -t 5.000000 -s 2 -x 361.000000 -y 325.000000 -U 1.563797 -V -1.246811 -T 47.320714
n -t 5.000000 -s 3 -x 87.000000 -y 102.000000 -U 1.981777 -V -0.269368 -T 103.947102
n -t 5.000000 -s 4 -x 276.000000 -y 387.000000 -U -0.828629 -V -1.820267 -T 73.615555
n -t 5.000000 -s 5 -x 234.000000 -y 10.000000 -U 1.263346 -V 1.550470 -T 87.070374
n -t 5.000000 -s 6 -x 488.000000 -y 162.000000 -U -1.928808 -V 0.528867 -T 64.288413
n -t 5.000000 -s 7 -x 74.000000 -y 100.000000 -U 1.939844 -V 0.486833 -T 133.515917
n -t 5.000000 -s 8 -x 61.000000 -y 251.000000 -U 1.435692 -V -1.392404 -T 138.609163
n -t 5.000000 -s 9 -x 230.000000 -y 22.000000 -U -0.715467 -V 1.867647 -T 107.622024
n -t 5.000000 -s 10 -x 55.000000 -y 79.000000 -U 1.641006 -V 1.143284 -T 202.924247
n -t 5.000000 -s 11 -x 172.000000 -y 369.000000 -U 1.985113 -V 0.243572 -T 164.222410
n -t 5.000000 -s 12 -x 218.000000 -y 95.000000 -U -1.562613 -V 1.248295 -T 111.351920
n -t 5.000000 -s 13 -x 209.000000 -y 282.000000 -U -0.656023 -V 1.889347 -T 76.216796
n -t 5.000000 -s 14 -x 384.000000 -y 146.000000 -U -1.848203 -V -0.764294 -T 71.961795
n -t 5.000000 -s 15 -x 96.000000 -y 276.000000 -U 1.980513 -V 0.278510 -T 193.889144
n -t 5.000000 -s 16 -x 32.000000 -y 340.000000 -U 1.596332 -V -1.204875 -T 196.700915
n -t 5.000000 -s 17 -x 380.000000 -y 275.000000 -U -1.729495 -V 1.004414 -T 168.257244
n -t 5.000000 -s 18 -x 10.000000 -y 488.000000 -U 0.173902 -V -1.992425 -T 201.262267
n -t 5.000000 -s 19 -x 106.000000 -y 390.000000 -U 1.798557 -V -0.874753 -T 122.320276
n -t 5.000000 -s 20 -x 180.000000 -y 322.000000 -U 1.630654 -V 1.158001 -T 84.628600
n -t 5.000000 -s 21 -x 252.000000 -y 272.000000 -U 0.620804 -V 1.901211 -T 51.546096
n -t 5.000000 -s 22 -x 285.000000 -y 468.000000 -U 1.957641 -V -0.409441 -T 78.155294
n -t 5.000000 -s 23 -x 32.000000 -y 73.000000 -U 1.519422 -V 1.300522 -T 232.983369
n -t 5.000000 -s 24 -x 134.000000 -y 119.000000 -U -1.904057 -V -0.612018 -T 58.821765
n -t 5.000000 -s 25 -x 316.000000 -y 398.000000 -U 0.523466 -V -1.930281 -T 183.393021
n -t 5.000000 -s 26 -x 71.000000 -y 170.000000 -U 1.832555 -V -0.801088 -T 190.990183
n -t 5.000000 -s 27 -x 271.000000 -y 249.000000 -U -1.476825 -V -1.348699 -T 148.291099
n -t 5.000000 -s 28 -x 360.000000 -y 246.000000 -U -1.957915 -V 0.408129 -T 181.315333
n -t 5.000000 -s 29 -x 498.000000 -y 144.000000 -U -1.803236 -V 0.865066 -T 164.149322
n -t 5.000000 -s 30 -x 125.000000 -y 265.000000 -U 1.997937 -V -0.090815 -T 132.136293
n -t 5.000000 -s 31 -x 299.000000 -y 365.000000 -U 1.883484 -V 0.672673 -T 44.598206
+ -t 5.000000000 -s 7 -d -1 -p cbr -e 512 -c 2 -a 0 -i 0 -k AGT 
- -t 5.000000000 -s 7 -d -1 -p cbr -e 512 -c 2 -a 0 -i 0 -k AGT
h -t 5.000000000 -s 7 -d -1 -p cbr -e 512 -c 2 -a 0 -i 0 -k AGT
+ -t 5.000000000 -s 25 -d -1 -p cbr -e 512 -c 2 -a 0 -i 2 -k AGT 
- -t 5.000000000 -s 25 -d -1 -p cbr -e 512 -c 2 -a 0 -i 2 -k AGT
h -t 5.000000000 -s 25 -d -1 -p cbr -e 512 -c 2 -a 0 -i 2 -k AGT
+ -t 5.000000000 -s 5 -d -1 -p cbr -e 512 -c 2 -a 0 -i 4 -k AGT 
- -t 5.000000000 -s 5 -d -1 -p cbr -e 512 -c 2 -a 0 -i 4 -k AGT
h -t 5.000000000 -s 5 -d -1 -p cbr -e 512 -c 2 -a 0 -i 4 -k AGT
+ -t 5.000000000 -s 6 -d -1 -p cbr -e 512 -c 2 -a 0 -i 6 -k AGT 
- -t 5.000000000 -s 6 -d -1 -p cbr -e 512 -c 2 -a 0 -i 6 -k AGT
h -t 5.000000000 -s 6 -d -1 -p cbr -e 512 -c 2 -a 0 -i 6 -k AGT
+ -t 5.000000000 -s 4 -d -1 -p cbr -e 512 -c 2 -a 0 -i 8 -k AGT 
- -t 5.000000000 -s 4 -d -1 -p cbr -e 512 -c 2 -a 0 -i 8 -k AGT
h -t 5.000000000 -s 4 -d -1 -p cbr -e 512 -c 2 -a 0 -i 8 -k AGT
+ -t 5.000000000 -s 17 -d -1 -p cbr -e 512 -c 2 -a 0 -i 10 -k AGT 
- -t 5.000000000 -s 17 -d -1 -p cbr -e 512 -c 2 -a 0 -i 10 -k AGT
h -t 5.000000000 -s 17 -d -1 -p cbr -e 512 -c 2 -a 0 -i 10 -k AGT
+ -t 5.000000000 -s 18 -d -1 -p cbr -e 512 -c 2 -a 0 -i 12 -k AGT 
- -t 5.000000000 -s 18 -d -1 -p cbr -e 512 -c 2 -a 0 -i 12 -k AGT
h -t 5.000000000 -s 18 -d -1 -p cbr -e 512 -c 2 -a 0 -i 12 -k AGT
+ -t 5.000000000 -s 9 -d -1 -p cbr -e 512 -c 2 -a 0 -i 14 -k AGT 
- -t 5.000000000 -s 9 -d -1 -p cbr -e 512 -c 2 -a 0 -i 14 -k AGT
h -t 5.000000000 -s 9 -d -1 -p cbr -e 512 -c 2 -a 0 -i 14 -k AGT
+ -t 5.000000000 -s 22 -d -1 -p cbr -e 512 -c 2 -a 0 -i 16 -k AGT 
- -t 5.000000000 -s 22 -d -1 -p cbr -e 512 -c 2 -a 0 -i 16 -k AGT
h -t 5.000000000 -s 22 -d -1 -p cbr -e 512 -c 2 -a 0 -i 16 -k AGT
+ -t 5.000000000 -s 3 -d -1 -p cbr -e 512 -c 2 -a 0 -i 18 -k AGT 
- -t 5.000000000 -s 3 -d -1 -p cbr -e 512 -c 2 -a 0 -i 18 -k AGT
h -t 5.000000000 -s 3 -d -1 -p cbr -e 512 -c 2 -a 0 -i 18 -k AGT
+ -t 5.000000000 -s 0 -d -1 -p cbr -e 512 -c 2 -a 0 -i 20 -k AGT 
- -t 5.000000000 -s 0 -d -1 -p cbr -e 512 -c 2 -a 0 -i 20 -k AGT
h -t 5.000000000 -s 0 -d -1 -p cbr -e 512 -c 2 -a 0 -i 20 -k AGT
+ -t 5.000000000 -s 23 -d -1 -p cbr -e 512 -c 2 -a 0 -i 22 -k AGT 
- -t 5.000000000 -s 23 -d -1 -p cbr -e 512 -c 2 -a 0 -i 22 -k AGT
h -t 5.000000000 -s 23 -d -1 -p cbr -e 512 -c 2 -a 0 -i 22 -k AGT
+ -t 5.000000000 -s 26 -d -1 -p cbr -e 512 -c 2 -a 0 -i 24 -k AGT 
- -t 5.000000000 -s 26 -d -1 -p cbr -e 512 -c 2 -a 0 -i 24 -k AGT
h -t 5.000000000 -s 26 -d -1 -p cbr -e 512 -c 2 -a 0 -i 24 -k AGT
+ -t 5.000000000 -s 14 -d -1 -p cbr -e 512 -c 2 -a 0 -i 26 -k AGT 
- -t 5.000000000 -s 14 -d -1 -p cbr -e 512 -c 2 -a 0 -i 26 -k AGT
h -t 5.000000000 -s 14 -d -1 -p cbr -e 512 -c 2 -a 0 -i 26 -k AGT
+ -t 5.000000000 -s 29 -d -1 -p cbr -e 512 -c 2 -a 0 -i 28 -k AGT 
- -t 5.000000000 -s 29 -d -1 -p cbr -e 512 -c 2 -a 0 -i 28 -k AGT
h -t 5.000000000 -s 29 -d -1 -p cbr -e 512 -c 2 -a 0 -i 28 -k AGT
+ -t 5.000000000 -s 13 -d -1 -p cbr -e 512 -c 2 -a 0 -i 30 -k AGT 
- -t 5.000000000 -s 13 -d -1 -p cbr -e 512 -c 2 -a 0 -i 30 -k AGT
h -t 5.000000000 -s 13 -d -1 -p cbr -e 512 -c 2 -a 0 -i 30 -k AGT
+ -t 5.000091526 -s 0 -d -1 -p DSR -e 32 -c 2 -a 0 -i 21 -k RTR 
- -t 5.000091526 -s 0 -d -1 -p DSR -e 32 -c 2 -a 0 -i 21 -k RTR
h -t 5.000091526 -s 0 -d -1 -p DSR -e 32 -c 2 -a 0 -i 21 -k RTR
+ -t 5.000600629 -s 7 -d -1 -p DSR -e 32 -c 2 -a 0 -i 1 -k RTR 
- -t 5.000600629 -s 7 -d -1 -p DSR -e 32 -c 2 -a 0 -i 1 -k RTR
h -t 5.000600629 -s 7 -d -1 -p DSR -e 32 -c 2 -a 0 -i 1 -k RTR
+ -t 5.000882653 -s 23 -d -1 -p DSR -e 32 -c 2 -a 0 -i 23 -k RTR 
- -t 5.000882653 -s 23 -d -1 -p DSR -e 32 -c 2 -a 0 -i 23 -k RTR
h -t 5.000882653 -s 23 -d -1 -p DSR -e 32 -c 2 -a 0 -i 23 -k RTR
+ -t 5.001213058 -s 5 -d -1 -p DSR -e 32 -c 2 -a 0 -i 5 -k RTR 
- -t 5.001213058 -s 5 -d -1 -p DSR -e 32 -c 2 -a 0 -i 5 -k RTR
h -t 5.001213058 -s 5 -d -1 -p DSR -e 32 -c 2 -a 0 -i 5 -k RTR
+ -t 5.002828981 -s 9 -d -1 -p DSR -e 32 -c 2 -a 0 -i 15 -k RTR 
- -t 5.002828981 -s 9 -d -1 -p DSR -e 32 -c 2 -a 0 -i 15 -k RTR
h -t 5.002828981 -s 9 -d -1 -p DSR -e 32 -c 2 -a 0 -i 15 -k RTR
+ -t 5.002879745 -s 26 -d -1 -p DSR -e 32 -c 2 -a 0 -i 25 -k RTR 
- -t 5.002879745 -s 26 -d -1 -p DSR -e 32 -c 2 -a 0 -i 25 -k RTR
h -t 5.002879745 -s 26 -d -1 -p DSR -e 32 -c 2 -a 0 -i 25 -k RTR
+ -t 5.003175462 -s 6 -d -1 -p DSR -e 32 -c 2 -a 0 -i 7 -k RTR 
- -t 5.003175462 -s 6 -d -1 -p DSR -e 32 -c 2 -a 0 -i 7 -k RTR
h -t 5.003175462 -s 6 -d -1 -p DSR -e 32 -c 2 -a 0 -i 7 -k RTR
+ -t 5.003280110 -s 29 -d -1 -p DSR -e 32 -c 2 -a 0 -i 29 -k RTR 
- -t 5.003280110 -s 29 -d -1 -p DSR -e 32 -c 2 -a 0 -i 29 -k RTR
h -t 5.003280110 -s 29 -d -1 -p DSR -e 32 -c 2 -a 0 -i 29 -k RTR
+ -t 5.005894741 -s 4 -d -1 -p DSR -e 32 -c 2 -a 0 -i 9 -k RTR 
- -t 5.005894741 -s 4 -d -1 -p DSR -e 32 -c 2 -a 0 -i 9 -k RTR
h -t 5.005894741 -s 4 -d -1 -p DSR -e 32 -c 2 -a 0 -i 9 -k RTR
+ -t 5.006125061 -s 14 -d -1 -p DSR -e 32 -c 2 -a 0 -i 27 -k RTR 
- -t 5.006125061 -s 14 -d -1 -p DSR -e 32 -c 2 -a 0 -i 27 -k RTR
h -t 5.006125061 -s 14 -d -1 -p DSR -e 32 -c 2 -a 0 -i 27 -k RTR
+ -t 5.006339506 -s 13 -d -1 -p DSR -e 32 -c 2 -a 0 -i 31 -k RTR 
- -t 5.006339506 -s 13 -d -1 -p DSR -e 32 -c 2 -a 0 -i 31 -k RTR
h -t 5.006339506 -s 13 -d -1 -p DSR -e 32 -c 2 -a 0 -i 31 -k RTR
+ -t 5.006569939 -s 25 -d -1 -p DSR -e 32 -c 2 -a 0 -i 3 -k RTR 
- -t 5.006569939 -s 25 -d -1 -p DSR -e 32 -c 2 -a 0 -i 3 -k RTR
h -t 5.006569939 -s 25 -d -1 -p DSR -e 32 -c 2 -a 0 -i 3 -k RTR
+ -t 5.007431755 -s 18 -d -1 -p DSR -e 32 -c 2 -a 0 -i 13 -k RTR 
- -t 5.007431755 -s 18 -d -1 -p DSR -e 32 -c 2 -a 0 -i 13 -k RTR
h -t 5.007431755 -s 18 -d -1 -p DSR -e 32 -c 2 -a 0 -i 13 -k RTR
+ -t 5.007573395 -s 17 -d -1 -p DSR -e 32 -c 2 -a 0 -i 11 -k RTR 
- -t 5.007573395 -s 17 -d -1 -p DSR -e 32 -c 2 -a 0 -i 11 -k RTR
h -t 5.007573395 -s 17 -d -1 -p DSR -e 32 -c 2 -a 0 -i 11 -k RTR
+ -t 5.008185278 -s 3 -d -1 -p DSR -e 32 -c 2 -a 0 -i 19 -k RTR 
- -t 5.008185278 -s 3 -d -1 -p DSR -e 32 -c 2 -a 0 -i 19 -k RTR
h -t 5.008185278 -s 3 -d -1 -p DSR -e 32 -c 2 -a 0 -i 19 -k RTR
+ -t 5.008908880 -s 22 -d -1 -p DSR -e 32 -c 2 -a 0 -i 17 -k RTR 
- -t 5.008908880 -s 22 -d -1 -p DSR -e 32 -c 2 -a 0 -i 17 -k RTR
h -t 5.008908880 -s 22 -d -1 -p DSR -e 32 -c 2 -a 0 -i 17 -k RTR
+ -t 5.009142857 -s 7 -d -1 -p cbr -e 512 -c 2 -a 0 -i 39 -k AGT 
- -t 5.009142857 -s 7 -d -1 -p cbr -e 512 -c 2 -a 0 -i 39 -k AGT
h -t 5.009142857 -s 7 -d -1 -p cbr -e 512 -c 2 -a 0 -i 39 -k AGT
+ -t 5.009142857 -s 25 -d -1 -p cbr -e 512 -c 2 -a 0 -i 41 -k AGT 
- -t 5.009142857 -s 25 -d -1 -p cbr -e 512 -c 2 -a 0 -i 41 -k AGT
h -t 5.009142857 -s 25 -d -1 -p cbr -e 512 -c 2 -a 0 -i 41 -k AGT
+ -t 5.009142857 -s 5 -d -1 -p cbr -e 512 -c 2 -a 0 -i 43 -k AGT 
- -t 5.009142857 -s 5 -d -1 -p cbr -e 512 -c 2 -a 0 -i 43 -k AGT
h -t 5.009142857 -s 5 -d -1 -p cbr -e 512 -c 2 -a 0 -i 43 -k AGT
+ -t 5.009142857 -s 6 -d -1 -p cbr -e 512 -c 2 -a 0 -i 45 -k AGT 
- -t 5.009142857 -s 6 -d -1 -p cbr -e 512 -c 2 -a 0 -i 45 -k AGT
h -t 5.009142857 -s 6 -d -1 -p cbr -e 512 -c 2 -a 0 -i 45 -k AGT
+ -t 5.009142857 -s 4 -d -1 -p cbr -e 512 -c 2 -a 0 -i 47 -k AGT 
- -t 5.009142857 -s 4 -d -1 -p cbr -e 512 -c 2 -a 0 -i 47 -k AGT
h -t 5.009142857 -s 4 -d -1 -p cbr -e 512 -c 2 -a 0 -i 47 -k AGT
+ -t 5.009142857 -s 17 -d -1 -p cbr -e 512 -c 2 -a 0 -i 49 -k AGT 
- -t 5.009142857 -s 17 -d -1 -p cbr -e 512 -c 2 -a 0 -i 49 -k AGT
h -t 5.009142857 -s 17 -d -1 -p cbr -e 512 -c 2 -a 0 -i 49 -k AGT
+ -t 5.009142857 -s 18 -d -1 -p cbr -e 512 -c 2 -a 0 -i 51 -k AGT 
- -t 5.009142857 -s 18 -d -1 -p cbr -e 512 -c 2 -a 0 -i 51 -k AGT
h -t 5.009142857 -s 18 -d -1 -p cbr -e 512 -c 2 -a 0 -i 51 -k AGT
+ -t 5.009142857 -s 9 -d -1 -p cbr -e 512 -c 2 -a 0 -i 53 -k AGT 
- -t 5.009142857 -s 9 -d -1 -p cbr -e 512 -c 2 -a 0 -i 53 -k AGT
h -t 5.009142857 -s 9 -d -1 -p cbr -e 512 -c 2 -a 0 -i 53 -k AGT
+ -t 5.009142857 -s 22 -d -1 -p cbr -e 512 -c 2 -a 0 -i 55 -k AGT 
- -t 5.009142857 -s 22 -d -1 -p cbr -e 512 -c 2 -a 0 -i 55 -k AGT
h -t 5.009142857 -s 22 -d -1 -p cbr -e 512 -c 2 -a 0 -i 55 -k AGT
+ -t 5.009142857 -s 3 -d -1 -p cbr -e 512 -c 2 -a 0 -i 57 -k AGT 
- -t 5.009142857 -s 3 -d -1 -p cbr -e 512 -c 2 -a 0 -i 57 -k AGT
h -t 5.009142857 -s 3 -d -1 -p cbr -e 512 -c 2 -a 0 -i 57 -k AGT
+ -t 5.009142857 -s 0 -d -1 -p cbr -e 512 -c 2 -a 0 -i 59 -k AGT 
- -t 5.009142857 -s 0 -d -1 -p cbr -e 512 -c 2 -a 0 -i 59 -k AGT
h -t 5.009142857 -s 0 -d -1 -p cbr -e 512 -c 2 -a 0 -i 59 -k AGT
+ -t 5.009142857 -s 23 -d -1 -p cbr -e 512 -c 2 -a 0 -i 61 -k AGT 
- -t 5.009142857 -s 23 -d -1 -p cbr -e 512 -c 2 -a 0 -i 61 -k AGT
h -t 5.009142857 -s 23 -d -1 -p cbr -e 512 -c 2 -a 0 -i 61 -k AGT
+ -t 5.009142857 -s 26 -d -1 -p cbr -e 512 -c 2 -a 0 -i 63 -k AGT 
- -t 5.009142857 -s 26 -d -1 -p cbr -e 512 -c 2 -a 0 -i 63 -k AGT
h -t 5.009142857 -s 26 -d -1 -p cbr -e 512 -c 2 -a 0 -i 63 -k AGT
+ -t 5.009142857 -s 14 -d -1 -p cbr -e 512 -c 2 -a 0 -i 65 -k AGT 
- -t 5.009142857 -s 14 -d -1 -p cbr -e 512 -c 2 -a 0 -i 65 -k AGT
h -t 5.009142857 -s 14 -d -1 -p cbr -e 512 -c 2 -a 0 -i 65 -k AGT
+ -t 5.009142857 -s 29 -d -1 -p cbr -e 512 -c 2 -a 0 -i 67 -k AGT 
- -t 5.009142857 -s 29 -d -1 -p cbr -e 512 -c 2 -a 0 -i 67 -k AGT
h -t 5.009142857 -s 29 -d -1 -p cbr -e 512 -c 2 -a 0 -i 67 -k AGT
+ -t 5.009142857 -s 13 -d -1 -p cbr -e 512 -c 2 -a 0 -i 69 -k AGT 
- -t 5.009142857 -s 13 -d -1 -p cbr -e 512 -c 2 -a 0 -i 69 -k AGT
h -t 5.009142857 -s 13 -d -1 -p cbr -e 512 -c 2 -a 0 -i 69 -k AGT
+ -t 5.009775504 -s 19 -d 22 -p DSR -e 44 -c 2 -a 0 -i 71 -k RTR 
- -t 5.009775504 -s 19 -d 22 -p DSR -e 44 -c 2 -a 0 -i 71 -k RTR
h -t 5.009775504 -s 19 -d 22 -p DSR -e 44 -c 2 -a 0 -i 71 -k RTR
+ -t 5.010625679 -s 27 -d 13 -p DSR -e 44 -c 2 -a 0 -i 37 -k RTR 
- -t 5.010625679 -s 27 -d 13 -p DSR -e 44 -c 2 -a 0 -i 37 -k RTR
h -t 5.010625679 -s 27 -d 13 -p DSR -e 44 -c 2 -a 0 -i 37 -k RTR
+ -t 5.010812694 -s 10 -d 26 -p DSR -e 44 -c 2 -a 0 -i 35 -k RTR 
- -t 5.010812694 -s 10 -d 26 -p DSR -e 44 -c 2 -a 0 -i 35 -k RTR
h -t 5.010812694 -s 10 -d 26 -p DSR -e 44 -c 2 -a 0 -i 35 -k RTR
+ -t 5.010831647 -s 15 -d 7 -p DSR -e 44 -c 2 -a 0 -i 32 -k RTR 
- -t 5.010831647 -s 15 -d 7 -p DSR -e 44 -c 2 -a 0 -i 32 -k RTR
h -t 5.010831647 -s 15 -d 7 -p DSR -e 44 -c 2 -a 0 -i 32 -k RTR
+ -t 5.011256432 -s 31 -d 25 -p DSR -e 44 -c 2 -a 0 -i 38 -k RTR 
- -t 5.011256432 -s 31 -d 25 -p DSR -e 44 -c 2 -a 0 -i 38 -k RTR
h -t 5.011256432 -s 31 -d 25 -p DSR -e 44 -c 2 -a 0 -i 38 -k RTR
+ -t 5.015426883 -s 21 -d 4 -p DSR -e 44 -c 2 -a 0 -i 36 -k RTR 
- -t 5.015426883 -s 21 -d 4 -p DSR -e 44 -c 2 -a 0 -i 36 -k RTR
h -t 5.015426883 -s 21 -d 4 -p DSR -e 44 -c 2 -a 0 -i 36 -k RTR
+ -t 5.016659977 -s 2 -d 17 -p DSR -e 44 -c 2 -a 0 -i 72 -k RTR 
- -t 5.016659977 -s 2 -d 17 -p DSR -e 44 -c 2 -a 0 -i 72 -k RTR
h -t 5.016659977 -s 2 -d 17 -p DSR -e 44 -c 2 -a 0 -i 72 -k RTR
+ -t 5.018285714 -s 7 -d -1 -p cbr -e 512 -c 2 -a 0 -i 78 -k AGT 
- -t 5.018285714 -s 7 -d -1 -p cbr -e 512 -c 2 -a 0 -i 78 -k AGT
h -t 5.018285714 -s 7 -d -1 -p cbr -e 512 -c 2 -a 0 -i 78 -k AGT
+ -t 5.018285714 -s 25 -d -1 -p cbr -e 512 -c 2 -a 0 -i 80 -k AGT 
- -t 5.018285714 -s 25 -d -1 -p cbr -e 512 -c 2 -a 0 -i 80 -k AGT
h -t 5.018285714 -s 25 -d -1 -p cbr -e 512 -c 2 -a 0 -i 80 -k AGT
+ -t 5.018285714 -s 5 -d -1 -p cbr -e 512 -c 2 -a 0 -i 82 -k AGT 
- -t 5.018285714 -s 5 -d -1 -p cbr -e 512 -c 2 -a 0 -i 82 -k AGT
h -t 5.018285714 -s 5 -d -1 -p cbr -e 512 -c 2 -a 0 -i 82 -k AGT
+ -t 5.018285714 -s 6 -d -1 -p cbr -e 512 -c 2 -a 0 -i 84 -k AGT 
- -t 5.018285714 -s 6 -d -1 -p cbr -e 512 -c 2 -a 0 -i 84 -k AGT
h -t 5.018285714 -s 6 -d -1 -p cbr -e 512 -c 2 -a 0 -i 84 -k AGT
+ -t 5.018285714 -s 4 -d -1 -p cbr -e 512 -c 2 -a 0 -i 86 -k AGT 
- -t 5.018285714 -s 4 -d -1 -p cbr -e 512 -c 2 -a 0 -i 86 -k AGT
h -t 5.018285714 -s 4 -d -1 -p cbr -e 512 -c 2 -a 0 -i 86 -k AGT
+ -t 5.018285714 -s 17 -d -1 -p cbr -e 512 -c 2 -a 0 -i 88 -k AGT 
- -t 5.018285714 -s 17 -d -1 -p cbr -e 512 -c 2 -a 0 -i 88 -k AGT
h -t 5.018285714 -s 17 -d -1 -p cbr -e 512 -c 2 -a 0 -i 88 -k AGT
+ -t 5.018285714 -s 18 -d -1 -p cbr -e 512 -c 2 -a 0 -i 90 -k AGT 
- -t 5.018285714 -s 18 -d -1 -p cbr -e 512 -c 2 -a 0 -i 90 -k AGT
h -t 5.018285714 -s 18 -d -1 -p cbr -e 512 -c 2 -a 0 -i 90 -k AGT
+ -t 5.018285714 -s 9 -d -1 -p cbr -e 512 -c 2 -a 0 -i 92 -k AGT 
- -t 5.018285714 -s 9 -d -1 -p cbr -e 512 -c 2 -a 0 -i 92 -k AGT
h -t 5.018285714 -s 9 -d -1 -p cbr -e 512 -c 2 -a 0 -i 92 -k AGT
+ -t 5.018285714 -s 22 -d -1 -p cbr -e 512 -c 2 -a 0 -i 94 -k AGT 
- -t 5.018285714 -s 22 -d -1 -p cbr -e 512 -c 2 -a 0 -i 94 -k AGT
h -t 5.018285714 -s 22 -d -1 -p cbr -e 512 -c 2 -a 0 -i 94 -k AGT
+ -t 5.018285714 -s 3 -d -1 -p cbr -e 512 -c 2 -a 0 -i 96 -k AGT 
- -t 5.018285714 -s 3 -d -1 -p cbr -e 512 -c 2 -a 0 -i 96 -k AGT
h -t 5.018285714 -s 3 -d -1 -p cbr -e 512 -c 2 -a 0 -i 96 -k AGT
+ -t 5.018285714 -s 0 -d -1 -p cbr -e 512 -c 2 -a 0 -i 98 -k AGT 
- -t 5.018285714 -s 0 -d -1 -p cbr -e 512 -c 2 -a 0 -i 98 -k AGT
h -t 5.018285714 -s 0 -d -1 -p cbr -e 512 -c 2 -a 0 -i 98 -k AGT
+ -t 5.018285714 -s 23 -d -1 -p cbr -e 512 -c 2 -a 0 -i 100 -k AGT 
- -t 5.018285714 -s 23 -d -1 -p cbr -e 512 -c 2 -a 0 -i 100 -k AGT
h -t 5.018285714 -s 23 -d -1 -p cbr -e 512 -c 2 -a 0 -i 100 -k AGT
+ -t 5.018285714 -s 26 -d -1 -p cbr -e 512 -c 2 -a 0 -i 102 -k AGT 
- -t 5.018285714 -s 26 -d -1 -p cbr -e 512 -c 2 -a 0 -i 102 -k AGT
h -t 5.018285714 -s 26 -d -1 -p cbr -e 512 -c 2 -a 0 -i 102 -k AGT
+ -t 5.018285714 -s 14 -d -1 -p cbr -e 512 -c 2 -a 0 -i 104 -k AGT 
- -t 5.018285714 -s 14 -d -1 -p cbr -e 512 -c 2 -a 0 -i 104 -k AGT
h -t 5.018285714 -s 14 -d -1 -p cbr -e 512 -c 2 -a 0 -i 104 -k AGT
+ -t 5.018285714 -s 29 -d -1 -p cbr -e 512 -c 2 -a 0 -i 106 -k AGT 
- -t 5.018285714 -s 29 -d -1 -p cbr -e 512 -c 2 -a 0 -i 106 -k AGT
h -t 5.018285714 -s 29 -d -1 -p cbr -e 512 -c 2 -a 0 -i 106 -k AGT
+ -t 5.018285714 -s 13 -d -1 -p cbr -e 512 -c 2 -a 0 -i 108 -k AGT 
- -t 5.018285714 -s 13 -d -1 -p cbr -e 512 -c 2 -a 0 -i 108 -k AGT
h -t 5.018285714 -s 13 -d -1 -p cbr -e 512 -c 2 -a 0 -i 108 -k AGT
+ -t 5.019503510 -s 25 -d 31 -p cbr -e 548 -c 2 -a 0 -i 2 -k RTR 
- -t 5.019503510 -s 25 -d 31 -p cbr -e 548 -c 2 -a 0 -i 2 -k RTR
h -t 5.019503510 -s 25 -d 31 -p cbr -e 548 -c 2 -a 0 -i 2 -k RTR
+ -t 5.022282175 -s 12 -d 14 -p DSR -e 44 -c 2 -a 0 -i 73 -k RTR 
- -t 5.022282175 -s 12 -d 14 -p DSR -e 44 -c 2 -a 0 -i 73 -k RTR
h -t 5.022282175 -s 12 -d 14 -p DSR -e 44 -c 2 -a 0 -i 73 -k RTR
+ -t 5.024467358 -s 30 -d 3 -p DSR -e 44 -c 2 -a 0 -i 116 -k RTR 
- -t 5.024467358 -s 30 -d 3 -p DSR -e 44 -c 2 -a 0 -i 116 -k RTR
h -t 5.024467358 -s 30 -d 3 -p DSR -e 44 -c 2 -a 0 -i 116 -k RTR
+ -t 5.027428571 -s 7 -d -1 -p cbr -e 512 -c 2 -a 0 -i 123 -k AGT 
- -t 5.027428571 -s 7 -d -1 -p cbr -e 512 -c 2 -a 0 -i 123 -k AGT
h -t 5.027428571 -s 7 -d -1 -p cbr -e 512 -c 2 -a 0 -i 123 -k AGT
+ -t 5.027428571 -s 25 -d -1 -p cbr -e 512 -c 2 -a 0 -i 125 -k AGT 
- -t 5.027428571 -s 25 -d -1 -p cbr -e 512 -c 2 -a 0 -i 125 -k AGT
h -t 5.027428571 -s 25 -d -1 -p cbr -e 512 -c 2 -a 0 -i 125 -k AGT
+ -t 5.027428571 -s 5 -d -1 -p cbr -e 512 -c 2 -a 0 -i 126 -k AGT 
- -t 5.027428571 -s 5 -d -1 -p cbr -e 512 -c 2 -a 0 -i 126 -k AGT
h -t 5.027428571 -s 5 -d -1 -p cbr -e 512 -c 2 -a 0 -i 126 -k AGT
+ -t 5.027428571 -s 6 -d -1 -p cbr -e 512 -c 2 -a 0 -i 128 -k AGT 
- -t 5.027428571 -s 6 -d -1 -p cbr -e 512 -c 2 -a 0 -i 128 -k AGT
h -t 5.027428571 -s 6 -d -1 -p cbr -e 512 -c 2 -a 0 -i 128 -k AGT
+ -t 5.027428571 -s 4 -d -1 -p cbr -e 512 -c 2 -a 0 -i 130 -k AGT 
- -t 5.027428571 -s 4 -d -1 -p cbr -e 512 -c 2 -a 0 -i 130 -k AGT
h -t 5.027428571 -s 4 -d -1 -p cbr -e 512 -c 2 -a 0 -i 130 -k AGT
+ -t 5.027428571 -s 17 -d -1 -p cbr -e 512 -c 2 -a 0 -i 132 -k AGT 
- -t 5.027428571 -s 17 -d -1 -p cbr -e 512 -c 2 -a 0 -i 132 -k AGT
h -t 5.027428571 -s 17 -d -1 -p cbr -e 512 -c 2 -a 0 -i 132 -k AGT
+ -t 5.027428571 -s 18 -d -1 -p cbr -e 512 -c 2 -a 0 -i 134 -k AGT 
- -t 5.027428571 -s 18 -d -1 -p cbr -e 512 -c 2 -a 0 -i 134 -k AGT
h -t 5.027428571 -s 18 -d -1 -p cbr -e 512 -c 2 -a 0 -i 134 -k AGT
+ -t 5.027428571 -s 9 -d -1 -p cbr -e 512 -c 2 -a 0 -i 136 -k AGT 
- -t 5.027428571 -s 9 -d -1 -p cbr -e 512 -c 2 -a 0 -i 136 -k AGT
h -t 5.027428571 -s 9 -d -1 -p cbr -e 512 -c 2 -a 0 -i 136 -k AGT
+ -t 5.027428571 -s 22 -d -1 -p cbr -e 512 -c 2 -a 0 -i 138 -k AGT 
- -t 5.027428571 -s 22 -d -1 -p cbr -e 512 -c 2 -a 0 -i 138 -k AGT
h -t 5.027428571 -s 22 -d -1 -p cbr -e 512 -c 2 -a 0 -i 138 -k AGT
+ -t 5.027428571 -s 3 -d -1 -p cbr -e 512 -c 2 -a 0 -i 140 -k AGT 
- -t 5.027428571 -s 3 -d -1 -p cbr -e 512 -c 2 -a 0 -i 140 -k AGT
h -t 5.027428571 -s 3 -d -1 -p cbr -e 512 -c 2 -a 0 -i 140 -k AGT
+ -t 5.027428571 -s 0 -d -1 -p cbr -e 512 -c 2 -a 0 -i 142 -k AGT 
- -t 5.027428571 -s 0 -d -1 -p cbr -e 512 -c 2 -a 0 -i 142 -k AGT
h -t 5.027428571 -s 0 -d -1 -p cbr -e 512 -c 2 -a 0 -i 142 -k AGT
+ -t 5.027428571 -s 23 -d -1 -p cbr -e 512 -c 2 -a 0 -i 144 -k AGT 
- -t 5.027428571 -s 23 -d -1 -p cbr -e 512 -c 2 -a 0 -i 144 -k AGT
h -t 5.027428571 -s 23 -d -1 -p cbr -e 512 -c 2 -a 0 -i 144 -k AGT
+ -t 5.027428571 -s 26 -d -1 -p cbr -e 512 -c 2 -a 0 -i 146 -k AGT 
- -t 5.027428571 -s 26 -d -1 -p cbr -e 512 -c 2 -a 0 -i 146 -k AGT
h -t 5.027428571 -s 26 -d -1 -p cbr -e 512 -c 2 -a 0 -i 146 -k AGT
+ -t 5.027428571 -s 14 -d -1 -p cbr -e 512 -c 2 -a 0 -i 148 -k AGT 
- -t 5.027428571 -s 14 -d -1 -p cbr -e 512 -c 2 -a 0 -i 148 -k AGT
h -t 5.027428571 -s 14 -d -1 -p cbr -e 512 -c 2 -a 0 -i 148 -k AGT
+ -t 5.027428571 -s 29 -d -1 -p cbr -e 512 -c 2 -a 0 -i 150 -k AGT 
- -t 5.027428571 -s 29 -d -1 -p cbr -e 512 -c 2 -a 0 -i 150 -k AGT
h -t 5.027428571 -s 29 -d -1 -p cbr -e 512 -c 2 -a 0 -i 150 -k AGT
+ -t 5.027428571 -s 13 -d -1 -p cbr -e 512 -c 2 -a 0 -i 152 -k AGT 
- -t 5.027428571 -s 13 -d -1 -p cbr -e 512 -c 2 -a 0 -i 152 -k AGT
h -t 5.027428571 -s 13 -d -1 -p cbr -e 512 -c 2 -a 0 -i 152 -k AGT
+ -t 5.027428571 -s 25 -d 31 -p cbr -e 532 -c 2 -a 0 -i 125 -k RTR 
- -t 5.027428571 -s 25 -d 31 -p cbr -e 532 -c 2 -a 0 -i 125 -k RTR
h -t 5.027428571 -s 25 -d 31 -p cbr -e 532 -c 2 -a 0 -i 125 -k RTR
+ -t 5.028395213 -s 13 -d 27 -p cbr -e 548 -c 2 -a 0 -i 30 -k RTR 
- -t 5.028395213 -s 13 -d 27 -p cbr -e 548 -c 2 -a 0 -i 30 -k RTR
h -t 5.028395213 -s 13 -d 27 -p cbr -e 548 -c 2 -a 0 -i 30 -k RTR
+ -t 5.034682421 -s 22 -d 19 -p cbr -e 548 -c 2 -a 0 -i 16 -k RTR 
- -t 5.034682421 -s 22 -d 19 -p cbr -e 548 -c 2 -a 0 -i 16 -k RTR
h -t 5.034682421 -s 22 -d 19 -p cbr -e 548 -c 2 -a 0 -i 16 -k RTR
+ -t 5.036571429 -s 7 -d -1 -p cbr -e 512 -c 2 -a 0 -i 162 -k AGT 
- -t 5.036571429 -s 7 -d -1 -p cbr -e 512 -c 2 -a 0 -i 162 -k AGT
h -t 5.036571429 -s 7 -d -1 -p cbr -e 512 -c 2 -a 0 -i 162 -k AGT
+ -t 5.036571429 -s 25 -d -1 -p cbr -e 512 -c 2 -a 0 -i 164 -k AGT 
- -t 5.036571429 -s 25 -d -1 -p cbr -e 512 -c 2 -a 0 -i 164 -k AGT
h -t 5.036571429 -s 25 -d -1 -p cbr -e 512 -c 2 -a 0 -i 164 -k AGT
+ -t 5.036571429 -s 5 -d -1 -p cbr -e 512 -c 2 -a 0 -i 165 -k AGT 
- -t 5.036571429 -s 5 -d -1 -p cbr -e 512 -c 2 -a 0 -i 165 -k AGT
h -t 5.036571429 -s 5 -d -1 -p cbr -e 512 -c 2 -a 0 -i 165 -k AGT
+ -t 5.036571429 -s 6 -d -1 -p cbr -e 512 -c 2 -a 0 -i 167 -k AGT 
- -t 5.036571429 -s 6 -d -1 -p cbr -e 512 -c 2 -a 0 -i 167 -k AGT
h -t 5.036571429 -s 6 -d -1 -p cbr -e 512 -c 2 -a 0 -i 167 -k AGT
+ -t 5.036571429 -s 4 -d -1 -p cbr -e 512 -c 2 -a 0 -i 169 -k AGT 
- -t 5.036571429 -s 4 -d -1 -p cbr -e 512 -c 2 -a 0 -i 169 -k AGT
h -t 5.036571429 -s 4 -d -1 -p cbr -e 512 -c 2 -a 0 -i 169 -k AGT
+ -t 5.036571429 -s 17 -d -1 -p cbr -e 512 -c 2 -a 0 -i 171 -k AGT 
- -t 5.036571429 -s 17 -d -1 -p cbr -e 512 -c 2 -a 0 -i 171 -k AGT
h -t 5.036571429 -s 17 -d -1 -p cbr -e 512 -c 2 -a 0 -i 171 -k AGT
+ -t 5.036571429 -s 18 -d -1 -p cbr -e 512 -c 2 -a 0 -i 173 -k AGT 
- -t 5.036571429 -s 18 -d -1 -p cbr -e 512 -c 2 -a 0 -i 173 -k AGT
h -t 5.036571429 -s 18 -d -1 -p cbr -e 512 -c 2 -a 0 -i 173 -k AGT
+ -t 5.036571429 -s 9 -d -1 -p cbr -e 512 -c 2 -a 0 -i 175 -k AGT 
- -t 5.036571429 -s 9 -d -1 -p cbr -e 512 -c 2 -a 0 -i 175 -k AGT
h -t 5.036571429 -s 9 -d -1 -p cbr -e 512 -c 2 -a 0 -i 175 -k AGT
+ -t 5.036571429 -s 22 -d -1 -p cbr -e 512 -c 2 -a 0 -i 177 -k AGT 
- -t 5.036571429 -s 22 -d -1 -p cbr -e 512 -c 2 -a 0 -i 177 -k AGT
h -t 5.036571429 -s 22 -d -1 -p cbr -e 512 -c 2 -a 0 -i 177 -k AGT
+ -t 5.036571429 -s 3 -d -1 -p cbr -e 512 -c 2 -a 0 -i 178 -k AGT 
- -t 5.036571429 -s 3 -d -1 -p cbr -e 512 -c 2 -a 0 -i 178 -k AGT
h -t 5.036571429 -s 3 -d -1 -p cbr -e 512 -c 2 -a 0 -i 178 -k AGT
+ -t 5.036571429 -s 0 -d -1 -p cbr -e 512 -c 2 -a 0 -i 180 -k AGT 
- -t 5.036571429 -s 0 -d -1 -p cbr -e 512 -c 2 -a 0 -i 180 -k AGT
h -t 5.036571429 -s 0 -d -1 -p cbr -e 512 -c 2 -a 0 -i 180 -k AGT
+ -t 5.036571429 -s 23 -d -1 -p cbr -e 512 -c 2 -a 0 -i 182 -k AGT 
- -t 5.036571429 -s 23 -d -1 -p cbr -e 512 -c 2 -a 0 -i 182 -k AGT
h -t 5.036571429 -s 23 -d -1 -p cbr -e 512 -c 2 -a 0 -i 182 -k AGT
+ -t 5.036571429 -s 26 -d -1 -p cbr -e 512 -c 2 -a 0 -i 184 -k AGT 
- -t 5.036571429 -s 26 -d -1 -p cbr -e 512 -c 2 -a 0 -i 184 -k AGT
h -t 5.036571429 -s 26 -d -1 -p cbr -e 512 -c 2 -a 0 -i 184 -k AGT
+ -t 5.036571429 -s 14 -d -1 -p cbr -e 512 -c 2 -a 0 -i 186 -k AGT 
- -t 5.036571429 -s 14 -d -1 -p cbr -e 512 -c 2 -a 0 -i 186 -k AGT
h -t 5.036571429 -s 14 -d -1 -p cbr -e 512 -c 2 -a 0 -i 186 -k AGT
+ -t 5.036571429 -s 29 -d -1 -p cbr -e 512 -c 2 -a 0 -i 188 -k AGT 
- -t 5.036571429 -s 29 -d -1 -p cbr -e 512 -c 2 -a 0 -i 188 -k AGT
h -t 5.036571429 -s 29 -d -1 -p cbr -e 512 -c 2 -a 0 -i 188 -k AGT
+ -t 5.036571429 -s 13 -d -1 -p cbr -e 512 -c 2 -a 0 -i 190 -k AGT 
- -t 5.036571429 -s 13 -d -1 -p cbr -e 512 -c 2 -a 0 -i 190 -k AGT
h -t 5.036571429 -s 13 -d -1 -p cbr -e 512 -c 2 -a 0 -i 190 -k AGT
+ -t 5.036571429 -s 25 -d 31 -p cbr -e 532 -c 2 -a 0 -i 164 -k RTR 
- -t 5.036571429 -s 25 -d 31 -p cbr -e 532 -c 2 -a 0 -i 164 -k RTR
h -t 5.036571429 -s 25 -d 31 -p cbr -e 532 -c 2 -a 0 -i 164 -k RTR
+ -t 5.036571429 -s 22 -d 19 -p cbr -e 532 -c 2 -a 0 -i 177 -k RTR 
- -t 5.036571429 -s 22 -d 19 -p cbr -e 532 -c 2 -a 0 -i 177 -k RTR
h -t 5.036571429 -s 22 -d 19 -p cbr -e 532 -c 2 -a 0 -i 177 -k RTR
+ -t 5.036571429 -s 13 -d 27 -p cbr -e 532 -c 2 -a 0 -i 190 -k RTR 
- -t 5.036571429 -s 13 -d 27 -p cbr -e 532 -c 2 -a 0 -i 190 -k RTR
h -t 5.036571429 -s 13 -d 27 -p cbr -e 532 -c 2 -a 0 -i 190 -k RTR
+ -t 5.037601642 -s 29 -d -1 -p DSR -e 32 -c 2 -a 0 -i 189 -k RTR 
- -t 5.037601642 -s 29 -d -1 -p DSR -e 32 -c 2 -a 0 -i 189 -k RTR
h -t 5.037601642 -s 29 -d -1 -p DSR -e 32 -c 2 -a 0 -i 189 -k RTR
+ -t 5.037673224 -s 17 -d -1 -p DSR -e 32 -c 2 -a 0 -i 172 -k RTR 
- -t 5.037673224 -s 17 -d -1 -p DSR -e 32 -c 2 -a 0 -i 172 -k RTR
h -t 5.037673224 -s 17 -d -1 -p DSR -e 32 -c 2 -a 0 -i 172 -k RTR
+ -t 5.038222764 -s 3 -d -1 -p DSR -e 32 -c 2 -a 0 -i 179 -k RTR 
- -t 5.038222764 -s 3 -d -1 -p DSR -e 32 -c 2 -a 0 -i 179 -k RTR
h -t 5.038222764 -s 3 -d -1 -p DSR -e 32 -c 2 -a 0 -i 179 -k RTR
+ -t 5.038423994 -s 18 -d -1 -p DSR -e 32 -c 2 -a 0 -i 174 -k RTR 
- -t 5.038423994 -s 18 -d -1 -p DSR -e 32 -c 2 -a 0 -i 174 -k RTR
h -t 5.038423994 -s 18 -d -1 -p DSR -e 32 -c 2 -a 0 -i 174 -k RTR
+ -t 5.038640301 -s 0 -d -1 -p DSR -e 32 -c 2 -a 0 -i 181 -k RTR 
- -t 5.038640301 -s 0 -d -1 -p DSR -e 32 -c 2 -a 0 -i 181 -k RTR
h -t 5.038640301 -s 0 -d -1 -p DSR -e 32 -c 2 -a 0 -i 181 -k RTR
+ -t 5.039385299 -s 23 -d -1 -p DSR -e 32 -c 2 -a 0 -i 183 -k RTR 
- -t 5.039385299 -s 23 -d -1 -p DSR -e 32 -c 2 -a 0 -i 183 -k RTR
h -t 5.039385299 -s 23 -d -1 -p DSR -e 32 -c 2 -a 0 -i 183 -k RTR
+ -t 5.039708852 -s 5 -d -1 -p DSR -e 32 -c 2 -a 0 -i 166 -k RTR 
- -t 5.039708852 -s 5 -d -1 -p DSR -e 32 -c 2 -a 0 -i 166 -k RTR
h -t 5.039708852 -s 5 -d -1 -p DSR -e 32 -c 2 -a 0 -i 166 -k RTR
+ -t 5.040348938 -s 4 -d -1 -p DSR -e 32 -c 2 -a 0 -i 158 -k RTR 
- -t 5.040348938 -s 4 -d -1 -p DSR -e 32 -c 2 -a 0 -i 158 -k RTR
h -t 5.040348938 -s 4 -d -1 -p DSR -e 32 -c 2 -a 0 -i 158 -k RTR
+ -t 5.040418461 -s 26 -d -1 -p DSR -e 32 -c 2 -a 0 -i 185 -k RTR 
- -t 5.040418461 -s 26 -d -1 -p DSR -e 32 -c 2 -a 0 -i 185 -k RTR
h -t 5.040418461 -s 26 -d -1 -p DSR -e 32 -c 2 -a 0 -i 185 -k RTR
r -t 5.040651793 -s 27 -d 27 -p cbr -e 512 -c 2 -a 0 -i 30 -k AGT
+ -t 5.041798287 -s 9 -d -1 -p DSR -e 32 -c 2 -a 0 -i 176 -k RTR 