n -t * -s 0  -x 135 -y 275 -Z 0 -z 20  -v circle -c black
n -t * -s 1  -x 372 -y 126 -Z 0 -z 20  -v circle -c black
n -t * -s 2  -x 241 -y 264 -Z 0 -z 20  -v circle -c black
n -t * -s 3  -x 127 -y 289 -Z 0 -z 20  -v circle -c black
n -t * -s 4  -x 42 -y 331 -Z 0 -z 20  -v circle -c black
n -t * -s 5  -x 300 -y 62 -Z 0 -z 20  -v circle -c black
n -t * -s 6  -x 369 -y 229 -Z 0 -z 20  -v circle -c black
n -t * -s 7  -x 130 -y 19 -Z 0 -z 20  -v circle -c black
n -t * -s 8  -x 325 -y 105 -Z 0 -z 20  -v circle -c black
n -t * -s 9  -x 314 -y 81 -Z 0 -z 20  -v circle -c black
n -t * -s 10  -x 290 -y 380 -Z 0 -z 20  -v circle -c black
n -t * -s 11  -x 80 -y 271 -Z 0 -z 20  -v circle -c black
n -t * -s 12  -x 410 -y 214 -Z 0 -z 20  -v circle -c black
n -t * -s 13  -x 474 -y 86 -Z 0 -z 20  -v circle -c black
V -t * -v 1.0a5 -a 0
W -t * -x 500 -y 500
A -t * -n 1 -p 0 -o 0x7fffffff -c 30 -a 1
A -t * -h 1 -m 1073741823 -s 0
n -t 0 -s 0 -S DLABEL -l "Source01" -L ""
n -t 0 -s 1 -S DLABEL -l "Source02" -L ""
n -t 0 -s 2 -S DLABEL -l "Sink01" -L ""
n -t 0 -s 3 -S DLABEL -l "Sink02" -L ""
n -t 0 -s 5 -S DLABEL -l "N5" -L ""
n -t 0 -s 6 -S DLABEL -l "N6" -L ""
n -t 0 -s 7 -S DLABEL -l "N7" -L ""
n -t 0 -s 8 -S DLABEL -l "N8" -L ""
n -t 0 -s 9 -S DLABEL -l "N9" -L ""
n -t 0 -s 10 -S DLABEL -l "N10" -L ""
n -t 0 -s 11 -S DLABEL -l "N11" -L ""
n -t 0 -s 12 -S DLABEL -l "N12" -L ""
n -t 0 -s 13 -S DLABEL -l "N13" -L ""
n -t 5.000000 -s 0 -x 135.000000 -y 275.000000 -U 11.552426 -V 3.246760 -T 26.487943
n -t 5.000000 -s 1 -x 372.000000 -y 126.000000 -U -1.824686 -V 11.860460 -T 10.960789
n -t 5.000000 -s 2 -x 241.000000 -y 264.000000 -U 11.998558 -V -0.186024 -T 21.502584
n -t 5.000000 -s 3 -x 127.000000 -y 289.000000 -U 2.103065 -V -11.814276 -T 16.166881
n -t 5.000000 -s 4 -x 42.000000 -y 331.000000 -U 8.329627 -V 8.638132 -T 12.965767
n -t 5.000000 -s 5 -x 300.000000 -y 62.000000 -U 0.441627 -V 11.991871 -T 29.436608
n -t 5.000000 -s 6 -x 369.000000 -y 229.000000 -U -7.055388 -V -9.706776 -T 22.252497
n -t 5.000000 -s 7 -x 130.000000 -y 19.000000 -U -0.990689 -V 11.959036 -T 14.131574
n -t 5.000000 -s 8 -x 325.000000 -y 105.000000 -U -11.954191 -V -1.047532 -T 16.228618
n -t 5.000000 -s 9 -x 314.000000 -y 81.000000 -U -8.324211 -V 8.643350 -T 37.601160
n -t 5.000000 -s 10 -x 290.000000 -y 380.000000 -U 10.296090 -V 6.163646 -T 14.277264
n -t 5.000000 -s 11 -x 80.000000 -y 271.000000 -U 9.577418 -V -7.230012 -T 21.300104
n -t 5.000000 -s 12 -x 410.000000 -y 214.000000 -U 8.182517 -V -8.777609 -T 6.721648
n -t 5.000000 -s 13 -x 474.000000 -y 86.000000 -U -11.494692 -V 3.445583 -T 35.407646
+ -t 5.000000000 -s 7 -d -1 -p cbr -e 512 -c 2 -a 0 -i 0 -k AGT 
- -t 5.000000000 -s 7 -d -1 -p cbr -e 512 -c 2 -a 0 -i 0 -k AGT
h -t 5.000000000 -s 7 -d -1 -p cbr -e 512 -c 2 -a 0 -i 0 -k AGT
+ -t 5.000000000 -s 6 -d -1 -p cbr -e 512 -c 2 -a 0 -i 2 -k AGT 
- -t 5.000000000 -s 6 -d -1 -p cbr -e 512 -c 2 -a 0 -i 2 -k AGT
h -t 5.000000000 -s 6 -d -1 -p cbr -e 512 -c 2 -a 0 -i 2 -k AGT
+ -t 5.000000000 -s 10 -d -1 -p cbr -e 512 -c 2 -a 0 -i 4 -k AGT 
- -t 5.000000000 -s 10 -d -1 -p cbr -e 512 -c 2 -a 0 -i 4 -k AGT
h -t 5.000000000 -s 10 -d -1 -p cbr -e 512 -c 2 -a 0 -i 4 -k AGT
+ -t 5.000000000 -s 4 -d -1 -p cbr -e 512 -c 2 -a 0 -i 6 -k AGT 
- -t 5.000000000 -s 4 -d -1 -p cbr -e 512 -c 2 -a 0 -i 6 -k AGT
h -t 5.000000000 -s 4 -d -1 -p cbr -e 512 -c 2 -a 0 -i 6 -k AGT
+ -t 5.000000000 -s 1 -d -1 -p cbr -e 512 -c 2 -a 0 -i 8 -k AGT 
- -t 5.000000000 -s 1 -d -1 -p cbr -e 512 -c 2 -a 0 -i 8 -k AGT
h -t 5.000000000 -s 1 -d -1 -p cbr -e 512 -c 2 -a 0 -i 8 -k AGT
+ -t 5.000000000 -s 2 -d -1 -p cbr -e 512 -c 2 -a 0 -i 10 -k AGT 
- -t 5.000000000 -s 2 -d -1 -p cbr -e 512 -c 2 -a 0 -i 10 -k AGT
h -t 5.000000000 -s 2 -d -1 -p cbr -e 512 -c 2 -a 0 -i 10 -k AGT
+ -t 5.000000000 -s 9 -d -1 -p cbr -e 512 -c 2 -a 0 -i 12 -k AGT 
- -t 5.000000000 -s 9 -d -1 -p cbr -e 512 -c 2 -a 0 -i 12 -k AGT
h -t 5.000000000 -s 9 -d -1 -p cbr -e 512 -c 2 -a 0 -i 12 -k AGT
+ -t 5.001020609 -s 9 -d -1 -p DSR -e 32 -c 2 -a 0 -i 13 -k RTR 
- -t 5.001020609 -s 9 -d -1 -p DSR -e 32 -c 2 -a 0 -i 13 -k RTR
h -t 5.001020609 -s 9 -d -1 -p DSR -e 32 -c 2 -a 0 -i 13 -k RTR
+ -t 5.001062646 -s 4 -d -1 -p DSR -e 32 -c 2 -a 0 -i 7 -k RTR 
- -t 5.001062646 -s 4 -d -1 -p DSR -e 32 -c 2 -a 0 -i 7 -k RTR
h -t 5.001062646 -s 4 -d -1 -p DSR -e 32 -c 2 -a 0 -i 7 -k RTR
+ -t 5.002356581 -s 10 -d -1 -p DSR -e 32 -c 2 -a 0 -i 5 -k RTR 
- -t 5.002356581 -s 10 -d -1 -p DSR -e 32 -c 2 -a 0 -i 5 -k RTR
h -t 5.002356581 -s 10 -d -1 -p DSR -e 32 -c 2 -a 0 -i 5 -k RTR
+ -t 5.002771051 -s 7 -d -1 -p DSR -e 32 -c 2 -a 0 -i 1 -k RTR 
- -t 5.002771051 -s 7 -d -1 -p DSR -e 32 -c 2 -a 0 -i 1 -k RTR
h -t 5.002771051 -s 7 -d -1 -p DSR -e 32 -c 2 -a 0 -i 1 -k RTR
+ -t 5.003775053 -s 1 -d -1 -p DSR -e 32 -c 2 -a 0 -i 9 -k RTR 
- -t 5.003775053 -s 1 -d -1 -p DSR -e 32 -c 2 -a 0 -i 9 -k RTR
h -t 5.003775053 -s 1 -d -1 -p DSR -e 32 -c 2 -a 0 -i 9 -k RTR
+ -t 5.006244338 -s 6 -d -1 -p DSR -e 32 -c 2 -a 0 -i 3 -k RTR 
- -t 5.006244338 -s 6 -d -1 -p DSR -e 32 -c 2 -a 0 -i 3 -k RTR
h -t 5.006244338 -s 6 -d -1 -p DSR -e 32 -c 2 -a 0 -i 3 -k RTR
+ -t 5.006573753 -s 8 -d 9 -p DSR -e 44 -c 2 -a 0 -i 14 -k RTR 
- -t 5.006573753 -s 8 -d 9 -p DSR -e 44 -c 2 -a 0 -i 14 -k RTR
h -t 5.006573753 -s 8 -d 9 -p DSR -e 44 -c 2 -a 0 -i 14 -k RTR
+ -t 5.009142857 -s 7 -d -1 -p cbr -e 512 -c 2 -a 0 -i 19 -k AGT 
- -t 5.009142857 -s 7 -d -1 -p cbr -e 512 -c 2 -a 0 -i 19 -k AGT
h -t 5.009142857 -s 7 -d -1 -p cbr -e 512 -c 2 -a 0 -i 19 -k AGT
+ -t 5.009142857 -s 6 -d -1 -p cbr -e 512 -c 2 -a 0 -i 21 -k AGT 
- -t 5.009142857 -s 6 -d -1 -p cbr -e 512 -c 2 -a 0 -i 21 -k AGT
h -t 5.009142857 -s 6 -d -1 -p cbr -e 512 -c 2 -a 0 -i 21 -k AGT
+ -t 5.009142857 -s 10 -d -1 -p cbr -e 512 -c 2 -a 0 -i 23 -k AGT 
- -t 5.009142857 -s 10 -d -1 -p cbr -e 512 -c 2 -a 0 -i 23 -k AGT
h -t 5.009142857 -s 10 -d -1 -p cbr -e 512 -c 2 -a 0 -i 23 -k AGT
+ -t 5.009142857 -s 4 -d -1 -p cbr -e 512 -c 2 -a 0 -i 25 -k AGT 
- -t 5.009142857 -s 4 -d -1 -p cbr -e 512 -c 2 -a 0 -i 25 -k AGT
h -t 5.009142857 -s 4 -d -1 -p cbr -e 512 -c 2 -a 0 -i 25 -k AGT
+ -t 5.009142857 -s 1 -d -1 -p cbr -e 512 -c 2 -a 0 -i 27 -k AGT 
- -t 5.009142857 -s 1 -d -1 -p cbr -e 512 -c 2 -a 0 -i 27 -k AGT
h -t 5.009142857 -s 1 -d -1 -p cbr -e 512 -c 2 -a 0 -i 27 -k AGT
+ -t 5.009142857 -s 2 -d -1 -p cbr -e 512 -c 2 -a 0 -i 29 -k AGT 
- -t 5.009142857 -s 2 -d -1 -p cbr -e 512 -c 2 -a 0 -i 29 -k AGT
h -t 5.009142857 -s 2 -d -1 -p cbr -e 512 -c 2 -a 0 -i 29 -k AGT
+ -t 5.009142857 -s 9 -d -1 -p cbr -e 512 -c 2 -a 0 -i 31 -k AGT 
- -t 5.009142857 -s 9 -d -1 -p cbr -e 512 -c 2 -a 0 -i 31 -k AGT
h -t 5.009142857 -s 9 -d -1 -p cbr -e 512 -c 2 -a 0 -i 31 -k AGT
+ -t 5.009292293 -s 2 -d -1 -p DSR -e 32 -c 2 -a 0 -i 11 -k RTR 
- -t 5.009292293 -s 2 -d -1 -p DSR -e 32 -c 2 -a 0 -i 11 -k RTR
h -t 5.009292293 -s 2 -d -1 -p DSR -e 32 -c 2 -a 0 -i 11 -k RTR
+ -t 5.009514118 -s 13 -d 1 -p DSR -e 44 -c 2 -a 0 -i 16 -k RTR 
- -t 5.009514118 -s 13 -d 1 -p DSR -e 44 -c 2 -a 0 -i 16 -k RTR
h -t 5.009514118 -s 13 -d 1 -p DSR -e 44 -c 2 -a 0 -i 16 -k RTR
+ -t 5.012985313 -s 9 -d 8 -p cbr -e 548 -c 2 -a 0 -i 12 -k RTR 
- -t 5.012985313 -s 9 -d 8 -p cbr -e 548 -c 2 -a 0 -i 12 -k RTR
h -t 5.012985313 -s 9 -d 8 -p cbr -e 548 -c 2 -a 0 -i 12 -k RTR
+ -t 5.014218727 -s 5 -d 6 -p DSR -e 44 -c 2 -a 0 -i 18 -k RTR 
- -t 5.014218727 -s 5 -d 6 -p DSR -e 44 -c 2 -a 0 -i 18 -k RTR
h -t 5.014218727 -s 5 -d 6 -p DSR -e 44 -c 2 -a 0 -i 18 -k RTR
+ -t 5.014417737 -s 0 -d 10 -p DSR -e 44 -c 2 -a 0 -i 17 -k RTR 
- -t 5.014417737 -s 0 -d 10 -p DSR -e 44 -c 2 -a 0 -i 17 -k RTR
h -t 5.014417737 -s 0 -d 10 -p DSR -e 44 -c 2 -a 0 -i 17 -k RTR
+ -t 5.016265256 -s 3 -d 2 -p DSR -e 44 -c 2 -a 0 -i 35 -k RTR 
- -t 5.016265256 -s 3 -d 2 -p DSR -e 44 -c 2 -a 0 -i 35 -k RTR
h -t 5.016265256 -s 3 -d 2 -p DSR -e 44 -c 2 -a 0 -i 35 -k RTR
+ -t 5.018285714 -s 7 -d -1 -p cbr -e 512 -c 2 -a 0 -i 38 -k AGT 
- -t 5.018285714 -s 7 -d -1 -p cbr -e 512 -c 2 -a 0 -i 38 -k AGT
h -t 5.018285714 -s 7 -d -1 -p cbr -e 512 -c 2 -a 0 -i 38 -k AGT
+ -t 5.018285714 -s 6 -d -1 -p cbr -e 512 -c 2 -a 0 -i 40 -k AGT 
- -t 5.018285714 -s 6 -d -1 -p cbr -e 512 -c 2 -a 0 -i 40 -k AGT
h -t 5.018285714 -s 6 -d -1 -p cbr -e 512 -c 2 -a 0 -i 40 -k AGT
+ -t 5.018285714 -s 10 -d -1 -p cbr -e 512 -c 2 -a 0 -i 42 -k AGT 
- -t 5.018285714 -s 10 -d -1 -p cbr -e 512 -c 2 -a 0 -i 42 -k AGT
h -t 5.018285714 -s 10 -d -1 -p cbr -e 512 -c 2 -a 0 -i 42 -k AGT
+ -t 5.018285714 -s 4 -d -1 -p cbr -e 512 -c 2 -a 0 -i 44 -k AGT 
- -t 5.018285714 -s 4 -d -1 -p cbr -e 512 -c 2 -a 0 -i 44 -k AGT
h -t 5.018285714 -s 4 -d -1 -p cbr -e 512 -c 2 -a 0 -i 44 -k AGT
+ -t 5.018285714 -s 1 -d -1 -p cbr -e 512 -c 2 -a 0 -i 46 -k AGT 
- -t 5.018285714 -s 1 -d -1 -p cbr -e 512 -c 2 -a 0 -i 46 -k AGT
h -t 5.018285714 -s 1 -d -1 -p cbr -e 512 -c 2 -a 0 -i 46 -k AGT
+ -t 5.018285714 -s 2 -d -1 -p cbr -e 512 -c 2 -a 0 -i 48 -k AGT 
- -t 5.018285714 -s 2 -d -1 -p cbr -e 512 -c 2 -a 0 -i 48 -k AGT
h -t 5.018285714 -s 2 -d -1 -p cbr -e 512 -c 2 -a 0 -i 48 -k AGT
+ -t 5.018285714 -s 9 -d -1 -p cbr -e 512 -c 2 -a 0 -i 50 -k AGT 
- -t 5.018285714 -s 9 -d -1 -p cbr -e 512 -c 2 -a 0 -i 50 -k AGT
h -t 5.018285714 -s 9 -d -1 -p cbr -e 512 -c 2 -a 0 -i 50 -k AGT
+ -t 5.018285714 -s 9 -d 8 -p cbr -e 548 -c 2 -a 0 -i 50 -k RTR 
- -t 5.018285714 -s 9 -d 8 -p cbr -e 548 -c 2 -a 0 -i 50 -k RTR
h -t 5.018285714 -s 9 -d 8 -p cbr -e 548 -c 2 -a 0 -i 50 -k RTR
r -t 5.019904887 -s 8 -d 8 -p cbr -e 512 -c 2 -a 0 -i 12 -k AGT
+ -t 5.027428571 -s 7 -d -1 -p cbr -e 512 -c 2 -a 0 -i 57 -k AGT 
- -t 5.027428571 -s 7 -d -1 -p cbr -e 512 -c 2 -a 0 -i 57 -k AGT
h -t 5.027428571 -s 7 -d -1 -p cbr -e 512 -c 2 -a 0 -i 57 -k AGT
+ -t 5.027428571 -s 6 -d -1 -p cbr -e 512 -c 2 -a 0 -i 59 -k AGT 
- -t 5.027428571 -s 6 -d -1 -p cbr -e 512 -c 2 -a 0 -i 59 -k AGT
h -t 5.027428571 -s 6 -d -1 -p cbr -e 512 -c 2 -a 0 -i 59 -k AGT
+ -t 5.027428571 -s 10 -d -1 -p cbr -e 512 -c 2 -a 0 -i 61 -k AGT 
- -t 5.027428571 -s 10 -d -1 -p cbr -e 512 -c 2 -a 0 -i 61 -k AGT
h -t 5.027428571 -s 10 -d -1 -p cbr -e 512 -c 2 -a 0 -i 61 -k AGT
+ -t 5.027428571 -s 4 -d -1 -p cbr -e 512 -c 2 -a 0 -i 63 -k AGT 
- -t 5.027428571 -s 4 -d -1 -p cbr -e 512 -c 2 -a 0 -i 63 -k AGT
h -t 5.027428571 -s 4 -d -1 -p cbr -e 512 -c 2 -a 0 -i 63 -k AGT
+ -t 5.027428571 -s 1 -d -1 -p cbr -e 512 -c 2 -a 0 -i 65 -k AGT 
- -t 5.027428571 -s 1 -d -1 -p cbr -e 512 -c 2 -a 0 -i 65 -k AGT
h -t 5.027428571 -s 1 -d -1 -p cbr -e 512 -c 2 -a 0 -i 65 -k AGT
+ -t 5.027428571 -s 2 -d -1 -p cbr -e 512 -c 2 -a 0 -i 67 -k AGT 
- -t 5.027428571 -s 2 -d -1 -p cbr -e 512 -c 2 -a 0 -i 67 -k AGT
h -t 5.027428571 -s 2 -d -1 -p cbr -e 512 -c 2 -a 0 -i 67 -k AGT
+ -t 5.027428571 -s 9 -d -1 -p cbr -e 512 -c 2 -a 0 -i 69 -k AGT 
- -t 5.027428571 -s 9 -d -1 -p cbr -e 512 -c 2 -a 0 -i 69 -k AGT
h -t 5.027428571 -s 9 -d -1 -p cbr -e 512 -c 2 -a 0 -i 69 -k AGT
+ -t 5.027428571 -s 9 -d 8 -p cbr -e 532 -c 2 -a 0 -i 69 -k RTR 
- -t 5.027428571 -s 9 -d 8 -p cbr -e 532 -c 2 -a 0 -i 69 -k RTR
h -t 5.027428571 -s 9 -d 8 -p cbr -e 532 -c 2 -a 0 -i 69 -k RTR
r -t 5.027710431 -s 8 -d 8 -p cbr -e 512 -c 2 -a 0 -i 50 -k AGT
+ -t 5.036571429 -s 7 -d -1 -p cbr -e 512 -c 2 -a 0 -i 70 -k AGT 
- -t 5.036571429 -s 7 -d -1 -p cbr -e 512 -c 2 -a 0 -i 70 -k AGT
h -t 5.036571429 -s 7 -d -1 -p cbr -e 512 -c 2 -a 0 -i 70 -k AGT
+ -t 5.036571429 -s 6 -d -1 -p cbr -e 512 -c 2 -a 0 -i 72 -k AGT 
- -t 5.036571429 -s 6 -d -1 -p cbr -e 512 -c 2 -a 0 -i 72 -k AGT
h -t 5.036571429 -s 6 -d -1 -p cbr -e 512 -c 2 -a 0 -i 72 -k AGT
+ -t 5.036571429 -s 10 -d -1 -p cbr -e 512 -c 2 -a 0 -i 74 -k AGT 
- -t 5.036571429 -s 10 -d -1 -p cbr -e 512 -c 2 -a 0 -i 74 -k AGT
h -t 5.036571429 -s 10 -d -1 -p cbr -e 512 -c 2 -a 0 -i 74 -k AGT
+ -t 5.036571429 -s 4 -d -1 -p cbr -e 512 -c 2 -a 0 -i 76 -k AGT 
- -t 5.036571429 -s 4 -d -1 -p cbr -e 512 -c 2 -a 0 -i 76 -k AGT
h -t 5.036571429 -s 4 -d -1 -p cbr -e 512 -c 2 -a 0 -i 76 -k AGT
+ -t 5.036571429 -s 1 -d -1 -p cbr -e 512 -c 2 -a 0 -i 78 -k AGT 
- -t 5.036571429 -s 1 -d -1 -p cbr -e 512 -c 2 -a 0 -i 78 -k AGT
h -t 5.036571429 -s 1 -d -1 -p cbr -e 512 -c 2 -a 0 -i 78 -k AGT
+ -t 5.036571429 -s 2 -d -1 -p cbr -e 512 -c 2 -a 0 -i 80 -k AGT 
- -t 5.036571429 -s 2 -d -1 -p cbr -e 512 -c 2 -a 0 -i 80 -k AGT
h -t 5.036571429 -s 2 -d -1 -p cbr -e 512 -c 2 -a 0 -i 80 -k AGT
+ -t 5.036571429 -s 9 -d -1 -p cbr -e 512 -c 2 -a 0 -i 82 -k AGT 
- -t 5.036571429 -s 9 -d -1 -p cbr -e 512 -c 2 -a 0 -i 82 -k AGT
h -t 5.036571429 -s 9 -d -1 -p cbr -e 512 -c 2 -a 0 -i 82 -k AGT
+ -t 5.036571429 -s 9 -d 8 -p cbr -e 532 -c 2 -a 0 -i 82 -k RTR 
- -t 5.036571429 -s 9 -d 8 -p cbr -e 532 -c 2 -a 0 -i 82 -k RTR
h -t 5.036571429 -s 9 -d 8 -p cbr -e 532 -c 2 -a 0 -i 82 -k RTR
r -t 5.037110427 -s 8 -d 8 -p cbr -e 512 -c 2 -a 0 -i 69 -k AGT
+ -t 5.039028021 -s 1 -d 13 -p cbr -e 548 -c 2 -a 0 -i 8 -k RTR 
- -t 5.039028021 -s 1 -d 13 -p cbr -e 548 -c 2 -a 0 -i 8 -k RTR
h -t 5.039028021 -s 1 -d 13 -p cbr -e 548 -c 2 -a 0 -i 8 -k RTR
+ -t 5.039734960 -s 2 -d -1 -p DSR -e 32 -c 2 -a 0 -i 81 -k RTR 
- -t 5.039734960 -s 2 -d -1 -p DSR -e 32 -c 2 -a 0 -i 81 -k RTR
h -t 5.039734960 -s 2 -d -1 -p DSR -e 32 -c 2 -a 0 -i 81 -k RTR
+ -t 5.040387382 -s 4 -d -1 -p DSR -e 32 -c 2 -a 0 -i 77 -k RTR 
- -t 5.040387382 -s 4 -d -1 -p DSR -e 32 -c 2 -a 0 -i 77 -k RTR
h -t 5.040387382 -s 4 -d -1 -p DSR -e 32 -c 2 -a 0 -i 77 -k RTR
+ -t 5.041925920 -s 10 -d -1 -p DSR -e 32 -c 2 -a 0 -i 75 -k RTR 
- -t 5.041925920 -s 10 -d -1 -p DSR -e 32 -c 2 -a 0 -i 75 -k RTR
h -t 5.041925920 -s 10 -d -1 -p DSR -e 32 -c 2 -a 0 -i 75 -k RTR
+ -t 5.042985313 -s 9 -d 8 -p cbr -e 548 -c 2 -a 0 -i 31 -k RTR 
- -t 5.042985313 -s 9 -d 8 -p cbr -e 548 -c 2 -a 0 -i 31 -k RTR
h -t 5.042985313 -s 9 -d 8 -p cbr -e 548 -c 2 -a 0 -i 31 -k RTR
+ -t 5.044122239 -s 6 -d -1 -p DSR -e 32 -c 2 -a 0 -i 73 -k RTR 
- -t 5.044122239 -s 6 -d -1 -p DSR -e 32 -c 2 -a 0 -i 73 -k RTR
h -t 5.044122239 -s 6 -d -1 -p DSR -e 32 -c 2 -a 0 -i 73 -k RTR
r -t 5.044848527 -s 8 -d 8 -p cbr -e 512 -c 2 -a 0 -i 82 -k AGT
+ -t 5.045714286 -s 7 -d -1 -p cbr -e 512 -c 2 -a 0 -i 83 -k AGT 
- -t 5.045714286 -s 7 -d -1 -p cbr -e 512 -c 2 -a 0 -i 83 -k AGT
h -t 5.045714286 -s 7 -d -1 -p cbr -e 512 -c 2 -a 0 -i 83 -k AGT
+ -t 5.045714286 -s 6 -d -1 -p cbr -e 512 -c 2 -a 0 -i 85 -k AGT 
- -t 5.045714286 -s 6 -d -1 -p cbr -e 512 -c 2 -a 0 -i 85 -k AGT
h -t 5.045714286 -s 6 -d -1 -p cbr -e 512 -c 2 -a 0 -i 85 -k AGT
+ -t 5.045714286 -s 10 -d -1 -p cbr -e 512 -c 2 -a 0 -i 87 -k AGT 
- -t 5.045714286 -s 10 -d -1 -p cbr -e 512 -c 2 -a 0 -i 87 -k AGT
h -t 5.045714286 -s 10 -d -1 -p cbr -e 512 -c 2 -a 0 -i 87 -k AGT
+ -t 5.045714286 -s 4 -d -1 -p cbr -e 512 -c 2 -a 0 -i 89 -k AGT 
- -t 5.045714286 -s 4 -d -1 -p cbr -e 512 -c 2 -a 0 -i 89 -k AGT
h -t 5.045714286 -s 4 -d -1 -p cbr -e 512 -c 2 -a 0 -i 89 -k AGT
+ -t 5.045714286 -s 1 -d -1 -p cbr -e 512 -c 2 -a 0 -i 91 -k AGT 
- -t 5.045714286 -s 1 -d -1 -p cbr -e 512 -c 2 -a 0 -i 91 -k AGT
h -t 5.045714286 -s 1 -d -1 -p cbr -e 512 -c 2 -a 0 -i 91 -k AGT
+ -t 5.045714286 -s 2 -d -1 -p cbr -e 512 -c 2 -a 0 -i 92 -k AGT 
- -t 5.045714286 -s 2 -d -1 -p cbr -e 512 -c 2 -a 0 -i 92 -k AGT
h -t 5.045714286 -s 2 -d -1 -p cbr -e 512 -c 2 -a 0 -i 92 -k AGT
+ -t 5.045714286 -s 9 -d -1 -p cbr -e 512 -c 2 -a 0 -i 94 -k AGT 
- -t 5.045714286 -s 9 -d -1 -p cbr -e 512 -c 2 -a 0 -i 94 -k AGT
h -t 5.045714286 -s 9 -d -1 -p cbr -e 512 -c 2 -a 0 -i 94 -k AGT
+ -t 5.045714286 -s 1 -d 13 -p cbr -e 532 -c 2 -a 0 -i 91 -k RTR 
- -t 5.045714286 -s 1 -d 13 -p cbr -e 532 -c 2 -a 0 -i 91 -k RTR
h -t 5.045714286 -s 1 -d 13 -p cbr -e 532 -c 2 -a 0 -i 91 -k RTR
+ -t 5.045714286 -s 9 -d 8 -p cbr -e 532 -c 2 -a 0 -i 94 -k RTR 
- -t 5.045714286 -s 9 -d 8 -p cbr -e 532 -c 2 -a 0 -i 94 -k RTR
h -t 5.045714286 -s 9 -d 8 -p cbr -e 532 -c 2 -a 0 -i 94 -k RTR
+ -t 5.046070923 -s 7 -d -1 -p DSR -e 32 -c 2 -a 0 -i 71 -k RTR 
- -t 5.046070923 -s 7 -d -1 -p DSR -e 32 -c 2 -a 0 -i 71 -k RTR
h -t 5.046070923 -s 7 -d -1 -p DSR -e 32 -c 2 -a 0 -i 71 -k RTR
+ -t 5.046201943 -s 1 -d -1 -p DSR -e 32 -c 2 -a 0 -i 79 -k RTR 
- -t 5.046201943 -s 1 -d -1 -p DSR -e 32 -c 2 -a 0 -i 79 -k RTR
h -t 5.046201943 -s 1 -d -1 -p DSR -e 32 -c 2 -a 0 -i 79 -k RTR
+ -t 5.047832282 -s 0 -d -1 -p DSR -e 48 -c 2 -a 0 -i 81 -k RTR 
- -t 5.047832282 -s 0 -d -1 -p DSR -e 48 -c 2 -a 0 -i 81 -k RTR
h -t 5.047832282 -s 0 -d -1 -p DSR -e 48 -c 2 -a 0 -i 81 -k RTR
+ -t 5.049833359 -s 0 -d 10 -p DSR -e 44 -c 2 -a 0 -i 96 -k RTR 
- -t 5.049833359 -s 0 -d 10 -p DSR -e 44 -c 2 -a 0 -i 96 -k RTR
h -t 5.049833359 -s 0 -d 10 -p DSR -e 44 -c 2 -a 0 -i 96 -k RTR
d -t 5.049833359 -s 0 -d 10 -p DSR -e 44 -c 2 -a 0 -i 17 -k IFQ
+ -t 5.049957339 -s 2 -d -1 -p DSR -e 48 -c 2 -a 0 -i 75 -k RTR 
- -t 5.049957339 -s 2 -d -1 -p DSR -e 48 -c 2 -a 0 -i 75 -k RTR
h -t 5.049957339 -s 2 -d -1 -p DSR -e 48 -c 2 -a 0 -i 75 -k RTR
+ -t 5.050613552 -s 6 -d 5 -p cbr -e 548 -c 2 -a 0 -i 2 -k RTR 
- -t 5.050613552 -s 6 -d 5 -p cbr -e 548 -c 2 -a 0 -i 2 -k RTR
h -t 5.050613552 -s 6 -d 5 -p cbr -e 548 -c 2 -a 0 -i 2 -k RTR
+ -t 5.051242660 -s 6 -d -1 -p DSR -e 48 -c 2 -a 0 -i 75 -k RTR 
- -t 5.051242660 -s 6 -d -1 -p DSR -e 48 -c 2 -a 0 -i 75 -k RTR
h -t 5.051242660 -s 6 -d -1 -p DSR -e 48 -c 2 -a 0 -i 75 -k RTR
+ -t 5.051704068 -s 10 -d -1 -p DSR -e 48 -c 2 -a 0 -i 81 -k RTR 
- -t 5.051704068 -s 10 -d -1 -p DSR -e 48 -c 2 -a 0 -i 81 -k RTR
h -t 5.051704068 -s 10 -d -1 -p DSR -e 48 -c 2 -a 0 -i 81 -k RTR
+ -t 5.052398061 -s 1 -d -1 -p DSR -e 48 -c 2 -a 0 -i 73 -k RTR 
- -t 5.052398061 -s 1 -d -1 -p DSR -e 48 -c 2 -a 0 -i 73 -k RTR
h -t 5.052398061 -s 1 -d -1 -p DSR -e 48 -c 2 -a 0 -i 73 -k RTR
+ -t 5.052854230 -s 8 -d -1 -p DSR -e 48 -c 2 -a 0 -i 71 -k RTR 
- -t 5.052854230 -s 8 -d -1 -p DSR -e 48 -c 2 -a 0 -i 71 -k RTR
h -t 5.052854230 -s 8 -d -1 -p DSR -e 48 -c 2 -a 0 -i 71 -k RTR
+ -t 5.053307251 -s 11 -d -1 -p DSR -e 48 -c 2 -a 0 -i 81 -k RTR 
- -t 5.053307251 -s 11 -d -1 -p DSR -e 48 -c 2 -a 0 -i 81 -k RTR
h -t 5.053307251 -s 11 -d -1 -p DSR -e 48 -c 2 -a 0 -i 81 -k RTR
+ -t 5.054104974 -s 3 -d 2 -p DSR -e 44 -c 2 -a 0 -i 95 -k RTR 
- -t 5.054104974 -s 3 -d 2 -p DSR -e 44 -c 2 -a 0 -i 95 -k RTR
h -t 5.054104974 -s 3 -d 2 -p DSR -e 44 -c 2 -a 0 -i 95 -k RTR
d -t 5.054104974 -s 3 -d 2 -p DSR -e 44 -c 2 -a 0 -i 35 -k IFQ
+ -t 5.054706464 -s 8 -d -1 -p DSR -e 48 -c 2 -a 0 -i 73 -k RTR 
- -t 5.054706464 -s 8 -d -1 -p DSR -e 48 -c 2 -a 0 -i 73 -k RTR
h -t 5.054706464 -s 8 -d -1 -p DSR -e 48 -c 2 -a 0 -i 73 -k RTR
+ -t 5.054857143 -s 7 -d -1 -p cbr -e 512 -c 2 -a 0 -i 109 -k AGT 
- -t 5.054857143 -s 7 -d -1 -p cbr -e 512 -c 2 -a 0 -i 109 -k AGT
h -t 5.054857143 -s 7 -d -1 -p cbr -e 512 -c 2 -a 0 -i 109 -k AGT
+ -t 5.054857143 -s 6 -d -1 -p cbr -e 512 -c 2 -a 0 -i 111 -k AGT 
- -t 5.054857143 -s 6 -d -1 -p cbr -e 512 -c 2 -a 0 -i 111 -k AGT
h -t 5.054857143 -s 6 -d -1 -p cbr -e 512 -c 2 -a 0 -i 111 -k AGT
+ -t 5.054857143 -s 10 -d -1 -p cbr -e 512 -c 2 -a 0 -i 112 -k AGT 
- -t 5.054857143 -s 10 -d -1 -p cbr -e 512 -c 2 -a 0 -i 112 -k AGT
h -t 5.054857143 -s 10 -d -1 -p cbr -e 512 -c 2 -a 0 -i 112 -k AGT
+ -t 5.054857143 -s 4 -d -1 -p cbr -e 512 -c 2 -a 0 -i 114 -k AGT 
- -t 5.054857143 -s 4 -d -1 -p cbr -e 512 -c 2 -a 0 -i 114 -k AGT
h -t 5.054857143 -s 4 -d -1 -p cbr -e 512 -c 2 -a 0 -i 114 -k AGT
+ -t 5.054857143 -s 1 -d -1 -p cbr -e 512 -c 2 -a 0 -i 116 -k AGT 
- -t 5.054857143 -s 1 -d -1 -p cbr -e 512 -c 2 -a 0 -i 116 -k AGT
h -t 5.054857143 -s 1 -d -1 -p cbr -e 512 -c 2 -a 0 -i 116 -k AGT
+ -t 5.054857143 -s 2 -d -1 -p cbr -e 512 -c 2 -a 0 -i 117 -k AGT 
- -t 5.054857143 -s 2 -d -1 -p cbr -e 512 -c 2 -a 0 -i 117 -k AGT
h -t 5.054857143 -s 2 -d -1 -p cbr -e 512 -c 2 -a 0 -i 117 -k AGT
+ -t 5.054857143 -s 9 -d -1 -p cbr -e 512 -c 2 -a 0 -i 119 -k AGT 
- -t 5.054857143 -s 9 -d -1 -p cbr -e 512 -c 2 -a 0 -i 119 -k AGT
h -t 5.054857143 -s 9 -d -1 -p cbr -e 512 -c 2 -a 0 -i 119 -k AGT
+ -t 5.054857143 -s 6 -d 5 -p cbr -e 532 -c 2 -a 0 -i 111 -k RTR 
- -t 5.054857143 -s 6 -d 5 -p cbr -e 532 -c 2 -a 0 -i 111 -k RTR
h -t 5.054857143 -s 6 -d 5 -p cbr -e 532 -c 2 -a 0 -i 111 -k RTR
+ -t 5.054857143 -s 1 -d 13 -p cbr -e 532 -c 2 -a 0 -i 116 -k RTR 
- -t 5.054857143 -s 1 -d 13 -p cbr -e 532 -c 2 -a 0 -i 116 -k RTR
h -t 5.054857143 -s 1 -d 13 -p cbr -e 532 -c 2 -a 0 -i 116 -k RTR
+ -t 5.054857143 -s 9 -d 8 -p cbr -e 532 -c 2 -a 0 -i 119 -k RTR 
- -t 5.054857143 -s 9 -d 8 -p cbr -e 532 -c 2 -a 0 -i 119 -k RTR
h -t 5.054857143 -s 9 -d 8 -p cbr -e 532 -c 2 -a 0 -i 119 -k RTR
+ -t 5.055678851 -s 11 -d -1 -p DSR -e 48 -c 2 -a 0 -i 75 -k RTR 
- -t 5.055678851 -s 11 -d -1 -p DSR -e 48 -c 2 -a 0 -i 75 -k RTR
h -t 5.055678851 -s 11 -d -1 -p DSR -e 48 -c 2 -a 0 -i 75 -k RTR
+ -t 5.056407763 -s 3 -d -1 -p DSR -e 48 -c 2 -a 0 -i 75 -k RTR 
- -t 5.056407763 -s 3 -d -1 -p DSR -e 48 -c 2 -a 0 -i 75 -k RTR
h -t 5.056407763 -s 3 -d -1 -p DSR -e 48 -c 2 -a 0 -i 75 -k RTR
r -t 5.056602984 -s 13 -d 13 -p cbr -e 512 -c 2 -a 0 -i 8 -k AGT
+ -t 5.056633972 -s 9 -d -1 -p DSR -e 48 -c 2 -a 0 -i 71 -k RTR 
- -t 5.056633972 -s 9 -d -1 -p DSR -e 48 -c 2 -a 0 -i 71 -k RTR
h -t 5.056633972 -s 9 -d -1 -p DSR -e 48 -c 2 -a 0 -i 71 -k RTR
+ -t 5.056747664 -s 12 -d -1 -p DSR -e 48 -c 2 -a 0 -i 75 -k RTR 
- -t 5.056747664 -s 12 -d -1 -p DSR -e 48 -c 2 -a 0 -i 75 -k RTR
h -t 5.056747664 -s 12 -d -1 -p DSR -e 48 -c 2 -a 0 -i 75 -k RTR
+ -t 5.057068752 -s 13 -d -1 -p DSR -e 48 -c 2 -a 0 -i 73 -k RTR 
- -t 5.057068752 -s 13 -d -1 -p DSR -e 48 -c 2 -a 0 -i 73 -k RTR
h -t 5.057068752 -s 13 -d -1 -p DSR -e 48 -c 2 -a 0 -i 73 -k RTR
+ -t 5.057237277 -s 5 -d -1 -p DSR -e 48 -c 2 -a 0 -i 71 -k RTR 
- -t 5.057237277 -s 5 -d -1 -p DSR -e 48 -c 2 -a 0 -i 71 -k RTR
h -t 5.057237277 -s 5 -d -1 -p DSR -e 48 -c 2 -a 0 -i 71 -k RTR
+ -t 5.057701352 -s 12 -d -1 -p DSR -e 48 -c 2 -a 0 -i 73 -k RTR 
- -t 5.057701352 -s 12 -d -1 -p DSR -e 48 -c 2 -a 0 -i 73 -k RTR
h -t 5.057701352 -s 12 -d -1 -p DSR -e 48 -c 2 -a 0 -i 73 -k RTR
+ -t 5.057997304 -s 2 -d -1 -p DSR -e 68 -c 2 -a 0 -i 71 -k RTR 
- -t 5.057997304 -s 2 -d -1 -p DSR -e 68 -c 2 -a 0 -i 71 -k RTR
h -t 5.057997304 -s 2 -d -1 -p DSR -e 68 -c 2 -a 0 -i 71 -k RTR
+ -t 5.058626953 -s 6 -d -1 -p DSR -e 68 -c 2 -a 0 -i 71 -k RTR 
- -t 5.058626953 -s 6 -d -1 -p DSR -e 68 -c 2 -a 0 -i 71 -k RTR
h -t 5.058626953 -s 6 -d -1 -p DSR -e 68 -c 2 -a 0 -i 71 -k RTR
r -t 5.063489829 -s 8 -d 8 -p cbr -e 512 -c 2 -a 0 -i 31 -k AGT
+ -t 5.064000000 -s 7 -d -1 -p cbr -e 512 -c 2 -a 0 -i 120 -k AGT 
- -t 5.064000000 -s 7 -d -1 -p cbr -e 512 -c 2 -a 0 -i 120 -k AGT
h -t 5.064000000 -s 7 -d -1 -p cbr -e 512 -c 2 -a 0 -i 120 -k AGT
+ -t 5.064000000 -s 6 -d -1 -p cbr -e 512 -c 2 -a 0 -i 122 -k AGT 
- -t 5.064000000 -s 6 -d -1 -p cbr -e 512 -c 2 -a 0 -i 122 -k AGT
h -t 5.064000000 -s 6 -d -1 -p cbr -e 512 -c 2 -a 0 -i 122 -k AGT
+ -t 5.064000000 -s 10 -d -1 -p cbr -e 512 -c 2 -a 0 -i 123 -k AGT 
- -t 5.064000000 -s 10 -d -1 -p cbr -e 512 -c 2 -a 0 -i 123 -k AGT
h -t 5.064000000 -s 10 -d -1 -p cbr -e 512 -c 2 -a 0 -i 123 -k AGT
+ -t 5.064000000 -s 4 -d -1 -p cbr -e 512 -c 2 -a 0 -i 125 -k AGT 
- -t 5.064000000 -s 4 -d -1 -p cbr -e 512 -c 2 -a 0 -i 125 -k AGT
h -t 5.064000000 -s 4 -d -1 -p cbr -e 512 -c 2 -a 0 -i 125 -k AGT
+ -t 5.064000000 -s 1 -d -1 -p cbr -e 512 -c 2 -a 0 -i 127 -k AGT 
- -t 5.064000000 -s 1 -d -1 -p cbr -e 512 -c 2 -a 0 -i 127 -k AGT
h -t 5.064000000 -s 1 -d -1 -p cbr -e 512 -c 2 -a 0 -i 127 -k AGT
+ -t 5.064000000 -s 2 -d -1 -p cbr -e 512 -c 2 -a 0 -i 128 -k AGT 
- -t 5.064000000 -s 2 -d -1 -p cbr -e 512 -c 2 -a 0 -i 128 -k AGT
h -t 5.064000000 -s 2 -d -1 -p cbr -e 512 -c 2 -a 0 -i 128 -k AGT
+ -t 5.064000000 -s 9 -d -1 -p cbr -e 512 -c 2 -a 0 -i 130 -k AGT 
- -t 5.064000000 -s 9 -d -1 -p cbr -e 512 -c 2 -a 0 -i 130 -k AGT
h -t 5.064000000 -s 9 -d -1 -p cbr -e 512 -c 2 -a 0 -i 130 -k AGT
+ -t 5.064000000 -s 6 -d 5 -p cbr -e 532 -c 2 -a 0 -i 122 -k RTR 
- -t 5.064000000 -s 6 -d 5 -p cbr -e 532 -c 2 -a 0 -i 122 -k RTR
h -t 5.064000000 -s 6 -d 5 -p cbr -e 532 -c 2 -a 0 -i 122 -k RTR
+ -t 5.064000000 -s 1 -d 13 -p cbr -e 532 -c 2 -a 0 -i 127 -k RTR 
- -t 5.064000000 -s 1 -d 13 -p cbr -e 532 -c 2 -a 0 -i 127 -k RTR
h -t 5.064000000 -s 1 -d 13 -p cbr -e 532 -c 2 -a 0 -i 127 -k RTR
+ -t 5.064000000 -s 9 -d 8 -p cbr -e 532 -c 2 -a 0 -i 130 -k RTR 
- -t 5.064000000 -s 9 -d 8 -p cbr -e 532 -c 2 -a 0 -i 130 -k RTR
h -t 5.064000000 -s 9 -d 8 -p cbr -e 532 -c 2 -a 0 -i 130 -k RTR
+ -t 5.064742863 -s 9 -d 13 -p DSR -e 56 -c 2 -a 0 -i 131 -k RTR 
- -t 5.064742863 -s 9 -d 13 -p DSR -e 56 -c 2 -a 0 -i 131 -k RTR
h -t 5.064742863 -s 9 -d 13 -p DSR -e 56 -c 2 -a 0 -i 131 -k RTR
+ -t 5.066352105 -s 13 -d -1 -p DSR -e 68 -c 2 -a 0 -i 71 -k RTR 
- -t 5.066352105 -s 13 -d -1 -p DSR -e 68 -c 2 -a 0 -i 71 -k RTR
h -t 5.066352105 -s 13 -d -1 -p DSR -e 68 -c 2 -a 0 -i 71 -k RTR
+ -t 5.066538576 -s 1 -d -1 -p DSR -e 68 -c 2 -a 0 -i 71 -k RTR 
- -t 5.066538576 -s 1 -d -1 -p DSR -e 68 -c 2 -a 0 -i 71 -k RTR
h -t 5.066538576 -s 1 -d -1 -p DSR -e 68 -c 2 -a 0 -i 71 -k RTR
+ -t 5.067181324 -s 12 -d -1 -p DSR -e 68 -c 2 -a 0 -i 71 -k RTR 
- -t 5.067181324 -s 12 -d -1 -p DSR -e 68 -c 2 -a 0 -i 71 -k RTR
h -t 5.067181324 -s 12 -d -1 -p DSR -e 68 -c 2 -a 0 -i 71 -k RTR
+ -t 5.069028021 -s 1 -d 13 -p cbr -e 548 -c 2 -a 0 -i 27 -k RTR 
- -t 5.069028021 -s 1 -d 13 -p cbr -e 548 -c 2 -a 0 -i 27 -k RTR
h -t 5.069028021 -s 1 -d 13 -p cbr -e 548 -c 2 -a 0 -i 27 -k RTR
+ -t 5.069841020 -s 5 -d 13 -p DSR -e 52 -c 2 -a 0 -i 132 -k RTR 
- -t 5.069841020 -s 5 -d 13 -p DSR -e 52 -c 2 -a 0 -i 132 -k RTR
h -t 5.069841020 -s 5 -d 13 -p DSR -e 52 -c 2 -a 0 -i 132 -k RTR
+ -t 5.073142857 -s 7 -d -1 -p cbr -e 512 -c 2 -a 0 -i 149 -k AGT 
- -t 5.073142857 -s 7 -d -1 -p cbr -e 512 -c 2 -a 0 -i 149 -k AGT
h -t 5.073142857 -s 7 -d -1 -p cbr -e 512 -c 2 -a 0 -i 149 -k AGT
+ -t 5.073142857 -s 6 -d -1 -p cbr -e 512 -c 2 -a 0 -i 151 -k AGT 
- -t 5.073142857 -s 6 -d -1 -p cbr -e 512 -c 2 -a 0 -i 151 -k AGT
h -t 5.073142857 -s 6 -d -1 -p cbr -e 512 -c 2 -a 0 -i 151 -k AGT
+ -t 5.073142857 -s 10 -d -1 -p cbr -e 512 -c 2 -a 0 -i 152 -k AGT 
- -t 5.073142857 -s 10 -d -1 -p cbr -e 512 -c 2 -a 0 -i 152 -k AGT
h -t 5.073142857 -s 10 -d -1 -p cbr -e 512 -c 2 -a 0 -i 152 -k AGT
+ -t 5.073142857 -s 4 -d -1 -p cbr -e 512 -c 2 -a 0 -i 154 -k AGT 
- -t 5.073142857 -s 4 -d -1 -p cbr -e 512 -c 2 -a 0 -i 154 -k AGT
h -t 5.073142857 -s 4 -d -1 -p cbr -e 512 -c 2 -a 0 -i 154 -k AGT
+ -t 5.073142857 -s 1 -d -1 -p cbr -e 512 -c 2 -a 0 -i 156 -k AGT 
- -t 5.073142857 -s 1 -d -1 -p cbr -e 512 -c 2 -a 0 -i 156 -k AGT
h -t 5.073142857 -s 1 -d -1 -p cbr -e 512 -c 2 -a 0 -i 156 -k AGT
+ -t 5.073142857 -s 2 -d -1 -p cbr -e 512 -c 2 -a 0 -i 157 -k AGT 
- -t 5.073142857 -s 2 -d -1 -p cbr -e 512 -c 2 -a 0 -i 157 -k AGT
h -t 5.073142857 -s 2 -d -1 -p cbr -e 512 -c 2 -a 0 -i 157 -k AGT
+ -t 5.073142857 -s 9 -d -1 -p cbr -e 512 -c 2 -a 0 -i 159 -k AGT 
- -t 5.073142857 -s 9 -d -1 -p cbr -e 512 -c 2 -a 0 -i 159 -k AGT
h -t 5.073142857 -s 9 -d -1 -p cbr -e 512 -c 2 -a 0 -i 159 -k AGT
+ -t 5.073142857 -s 6 -d 5 -p cbr -e 532 -c 2 -a 0 -i 151 -k RTR 
- -t 5.073142857 -s 6 -d 5 -p cbr -e 532 -c 2 -a 0 -i 151 -k RTR
h -t 5.073142857 -s 6 -d 5 -p cbr -e 532 -c 2 -a 0 -i 151 -k RTR
+ -t 5.073142857 -s 1 -d 13 -p cbr -e 532 -c 2 -a 0 -i 156 -k RTR 
- -t 5.073142857 -s 1 -d 13 -p cbr -e 532 -c 2 -a 0 -i 156 -k RTR
h -t 5.073142857 -s 1 -d 13 -p cbr -e 532 -c 2 -a 0 -i 156 -k RTR
+ -t 5.073142857 -s 9 -d 8 -p cbr -e 532 -c 2 -a 0 -i 159 -k RTR 
- -t 5.073142857 -s 9 -d 8 -p cbr -e 532 -c 2 -a 0 -i 159 -k RTR
h -t 5.073142857 -s 9 -d 8 -p cbr -e 532 -c 2 -a 0 -i 159 -k RTR
r -t 5.073333902 -s 5 -d 5 -p cbr -e 512 -c 2 -a 0 -i 2 -k AGT
+ -t 5.074566660 -s 2 -d 8 -p DSR -e 56 -c 2 -a 0 -i 161 -k RTR 
- -t 5.074566660 -s 2 -d 8 -p DSR -e 56 -c 2 -a 0 -i 161 -k RTR
h -t 5.074566660 -s 2 -d 8 -p DSR -e 56 -c 2 -a 0 -i 161 -k RTR
+ -t 5.074566770 -s 7 -d 8 -p DSR -e 56 -c 2 -a 0 -i 162 -k RTR 
- -t 5.074566770 -s 7 -d 8 -p DSR -e 56 -c 2 -a 0 -i 162 -k RTR
h -t 5.074566770 -s 7 -d 8 -p DSR -e 56 -c 2 -a 0 -i 162 -k RTR
+ -t 5.076715344 -s 3 -d -1 -p DSR -e 92 -c 2 -a 0 -i 71 -k RTR 
- -t 5.076715344 -s 3 -d -1 -p DSR -e 92 -c 2 -a 0 -i 71 -k RTR
h -t 5.076715344 -s 3 -d -1 -p DSR -e 92 -c 2 -a 0 -i 71 -k RTR
+ -t 5.078381621 -s 0 -d -1 -p DSR -e 92 -c 2 -a 0 -i 71 -k RTR 
- -t 5.078381621 -s 0 -d -1 -p DSR -e 92 -c 2 -a 0 -i 71 -k RTR
h -t 5.078381621 -s 0 -d -1 -p DSR -e 92 -c 2 -a 0 -i 71 -k RTR
+ -t 5.078888942 -s 9 -d -1 -p DSR -e 68 -c 2 -a 0 -i 75 -k RTR 
- -t 5.078888942 -s 9 -d -1 -p DSR -e 68 -c 2 -a 0 -i 75 -k RTR
h -t 5.078888942 -s 9 -d -1 -p DSR -e 68 -c 2 -a 0 -i 75 -k RTR
+ -t 5.080613552 -s 6 -d 5 -p cbr -e 548 -c 2 -a 0 -i 21 -k RTR 
- -t 5.080613552 -s 6 -d 5 -p cbr -e 548 -c 2 -a 0 -i 21 -k RTR
h -t 5.080613552 -s 6 -d 5 -p cbr -e 548 -c 2 -a 0 -i 21 -k RTR
+ -t 5.080805599 -s 5 -d 1 -p DSR -e 52 -c 2 -a 0 -i 164 -k RTR 
- -t 5.080805599 -s 5 -d 1 -p DSR -e 52 -c 2 -a 0 -i 164 -k RTR
h -t 5.080805599 -s 5 -d 1 -p DSR -e 52 -c 2 -a 0 -i 164 -k RTR
+ -t 5.080852599 -s 8 -d 1 -p DSR -e 48 -c 2 -a 0 -i 165 -k RTR 
- -t 5.080852599 -s 8 -d 1 -p DSR -e 48 -c 2 -a 0 -i 165 -k RTR
h -t 5.080852599 -s 8 -d 1 -p DSR -e 48 -c 2 -a 0 -i 165 -k RTR
+ -t 5.080852670 -s 9 -d 1 -p DSR -e 48 -c 2 -a 0 -i 166 -k RTR 
- -t 5.080852670 -s 9 -d 1 -p DSR -e 48 -c 2 -a 0 -i 166 -k RTR
h -t 5.080852670 -s 9 -d 1 -p DSR -e 48 -c 2 -a 0 -i 166 -k RTR
+ -t 5.080852739 -s 12 -d 1 -p DSR -e 48 -c 2 -a 0 -i 167 -k RTR 
- -t 5.080852739 -s 12 -d 1 -p DSR -e 48 -c 2 -a 0 -i 167 -k RTR
h -t 5.080852739 -s 12 -d 1 -p DSR -e 48 -c 2 -a 0 -i 167 -k RTR
+ -t 5.080852744 -s 5 -d 1 -p DSR -e 48 -c 2 -a 0 -i 168 -k RTR 
- -t 5.080852744 -s 5 -d 1 -p DSR -e 48 -c 2 -a 0 -i 168 -k RTR
h -t 5.080852744 -s 5 -d 1 -p DSR -e 48 -c 2 -a 0 -i 168 -k RTR
d -t 5.080852744 -s 5 -d 1 -p DSR -e 52 -c 2 -a 0 -i 164 -k IFQ
+ -t 5.080852761 -s 6 -d 1 -p DSR -e 48 -c 2 -a 0 -i 169 -k RTR 
- -t 5.080852761 -s 6 -d 1 -p DSR -e 48 -c 2 -a 0 -i 169 -k RTR
h -t 5.080852761 -s 6 -d 1 -p DSR -e 48 -c 2 -a 0 -i 169 -k RTR
+ -t 5.080917018 -s 5 -d -1 -p DSR -e 68 -c 2 -a 0 -i 75 -k RTR 
- -t 5.080917018 -s 5 -d -1 -p DSR -e 68 -c 2 -a 0 -i 75 -k RTR