Sconfig 0.00000 tap: on snoop: rts? on errs? on
Sconfig 0.00000 salvage: on !bd replies? on
Sconfig 0.00000 grat error: on grat reply: on
Sconfig 0.00000 $reply for props: on ring 0 search: on
Sconfig 0.00000 using MOBICACHE
M 5.00000 0 (403.00, 290.00, 0.00), (120.00, 388.00), 2.00
M 5.00000 1 (483.00, 470.00, 0.00), (496.00, 234.00), 2.00
M 5.00000 2 (150.00, 352.00, 0.00), (305.00, 409.00), 2.00
M 5.00000 3 (93.00, 9.00, 0.00), (7.00, 257.00), 2.00
M 5.00000 4 (116.00, 139.00, 0.00), (115.00, 388.00), 2.00
M 5.00000 5 (134.00, 482.00, 0.00), (231.00, 180.00), 2.00
M 5.00000 6 (274.00, 72.00, 0.00), (109.00, 143.00), 2.00
M 5.00000 7 (395.00, 56.00, 0.00), (413.00, 94.00), 2.00
M 5.00000 8 (364.00, 380.00, 0.00), (187.00, 437.00), 2.00
M 5.00000 9 (373.00, 48.00, 0.00), (499.00, 179.00), 2.00
M 5.00000 10 (403.00, 127.00, 0.00), (191.00, 429.00), 2.00
M 5.00000 11 (104.00, 228.00, 0.00), (21.00, 443.00), 2.00
M 5.00000 12 (243.00, 27.00, 0.00), (494.00, 305.00), 2.00
M 5.00000 13 (160.00, 382.00, 0.00), (478.00, 435.00), 2.00
s 5.000000000 _7_ AGT  --- 0 cbr 512 [0 0 0 0] ------- [7:0 11:0 32 0] [0] 0 0
r 5.000000000 _7_ RTR  --- 0 cbr 512 [0 0 0 0] ------- [7:0 11:0 32 0] [0] 0 0
s 5.000000000 _6_ AGT  --- 2 cbr 512 [0 0 0 0] ------- [6:0 5:0 32 0] [0] 0 0
r 5.000000000 _6_ RTR  --- 2 cbr 512 [0 0 0 0] ------- [6:0 5:0 32 0] [0] 0 0
s 5.000000000 _10_ AGT  --- 4 cbr 512 [0 0 0 0] ------- [10:0 0:0 32 0] [0] 0 0
r 5.000000000 _10_ RTR  --- 4 cbr 512 [0 0 0 0] ------- [10:0 0:0 32 0] [0] 0 0
s 5.000000000 _4_ AGT  --- 6 cbr 512 [0 0 0 0] ------- [4:0 12:0 32 0] [0] 0 0
r 5.000000000 _4_ RTR  --- 6 cbr 512 [0 0 0 0] ------- [4:0 12:0 32 0] [0] 0 0
s 5.000000000 _1_ AGT  --- 8 cbr 512 [0 0 0 0] ------- [1:0 13:0 32 0] [0] 0 0
r 5.000000000 _1_ RTR  --- 8 cbr 512 [0 0 0 0] ------- [1:0 13:0 32 0] [0] 0 0
s 5.000000000 _2_ AGT  --- 10 cbr 512 [0 0 0 0] ------- [2:0 3:0 32 0] [0] 0 0
r 5.000000000 _2_ RTR  --- 10 cbr 512 [0 0 0 0] ------- [2:0 3:0 32 0] [0] 0 0
s 5.000000000 _9_ AGT  --- 12 cbr 512 [0 0 0 0] ------- [9:0 8:0 32 0] [0] 0 0
r 5.000000000 _9_ RTR  --- 12 cbr 512 [0 0 0 0] ------- [9:0 8:0 32 0] [0] 0 0
s 5.001020609 _9_ RTR  --- 13 DSR 32 [0 0 0 0] ------- [9:255 8:255 32 0] 1 [1 1] [0 1 0 0->0] [0 0 0 0->0]
s 5.001062646 _4_ RTR  --- 7 DSR 32 [0 0 0 0] ------- [4:255 12:255 32 0] 1 [1 1] [0 1 0 0->0] [0 0 0 0->0]
r 5.001900687 _7_ RTR  --- 13 DSR 32 [0 ffffffff 9 800] ------- [9:255 8:255 32 0] 1 [1 1] [0 1 0 0->0] [0 0 0 0->0]
r 5.001900891 _10_ RTR  --- 13 DSR 32 [0 ffffffff 9 800] ------- [9:255 8:255 32 0] 1 [1 1] [0 1 0 0->0] [0 0 0 0->0]
r 5.001900949 _6_ RTR  --- 13 DSR 32 [0 ffffffff 9 800] ------- [9:255 8:255 32 0] 1 [1 1] [0 1 0 0->0] [0 0 0 0->0]
r 5.001901048 _12_ RTR  --- 13 DSR 32 [0 ffffffff 9 800] ------- [9:255 8:255 32 0] 1 [1 1] [0 1 0 0->0] [0 0 0 0->0]
r 5.001901422 _0_ RTR  --- 13 DSR 32 [0 ffffffff 9 800] ------- [9:255 8:255 32 0] 1 [1 1] [0 1 0 0->0] [0 0 0 0->0]
s 5.002356581 _10_ RTR  --- 5 DSR 32 [0 0 0 0] ------- [10:255 0:255 32 0] 1 [1 1] [0 1 0 0->0] [0 0 0 0->0]
s 5.002771051 _7_ RTR  --- 1 DSR 32 [0 0 0 0] ------- [7:255 11:255 32 0] 1 [1 1] [0 1 0 0->0] [0 0 0 0->0]
r 5.003355817 _11_ RTR  --- 7 DSR 32 [0 ffffffff 4 800] ------- [4:255 12:255 32 0] 1 [1 1] [0 1 0 0->0] [0 0 0 0->0]
r 5.003355958 _3_ RTR  --- 7 DSR 32 [0 ffffffff 4 800] ------- [4:255 12:255 32 0] 1 [1 1] [0 1 0 0->0] [0 0 0 0->0]
r 5.003356082 _12_ RTR  --- 7 DSR 32 [0 ffffffff 4 800] ------- [4:255 12:255 32 0] 1 [1 1] [0 1 0 0->0] [0 0 0 0->0]
r 5.003356090 _6_ RTR  --- 7 DSR 32 [0 ffffffff 4 800] ------- [4:255 12:255 32 0] 1 [1 1] [0 1 0 0->0] [0 0 0 0->0]
r 5.003356237 _2_ RTR  --- 7 DSR 32 [0 ffffffff 4 800] ------- [4:255 12:255 32 0] 1 [1 1] [0 1 0 0->0] [0 0 0 0->0]
r 5.003356341 _13_ RTR  --- 7 DSR 32 [0 ffffffff 4 800] ------- [4:255 12:255 32 0] 1 [1 1] [0 1 0 0->0] [0 0 0 0->0]
s 5.003775053 _1_ RTR  --- 9 DSR 32 [0 0 0 0] ------- [1:255 13:255 32 0] 1 [1 1] [0 1 0 0->0] [0 0 0 0->0]
r 5.004610713 _7_ RTR  --- 5 DSR 32 [0 ffffffff a 800] ------- [10:255 0:255 32 0] 1 [1 1] [0 1 0 0->0] [0 0 0 0->0]
r 5.004610757 _9_ RTR  --- 5 DSR 32 [0 ffffffff a 800] ------- [10:255 0:255 32 0] 1 [1 1] [0 1 0 0->0] [0 0 0 0->0]
r 5.004610943 _6_ RTR  --- 5 DSR 32 [0 ffffffff a 800] ------- [10:255 0:255 32 0] 1 [1 1] [0 1 0 0->0] [0 0 0 0->0]
r 5.004611019 _0_ RTR  --- 5 DSR 32 [0 ffffffff a 800] ------- [10:255 0:255 32 0] 1 [1 1] [0 1 0 0->0] [0 0 0 0->0]
r 5.004611104 _12_ RTR  --- 5 DSR 32 [0 ffffffff a 800] ------- [10:255 0:255 32 0] 1 [1 1] [0 1 0 0->0] [0 0 0 0->0]
s 5.005432967 _12_ RTR  --- 15 DSR 44 [0 0 0 0] ------- [12:255 4:255 254 4] 2 [0 1] [1 1 2 4->12] [0 0 0 0->0]
r 5.005700792 _9_ RTR  --- 1 DSR 32 [0 ffffffff 7 800] ------- [7:255 11:255 32 0] 1 [1 1] [0 1 0 0->0] [0 0 0 0->0]
r 5.005700952 _10_ RTR  --- 1 DSR 32 [0 ffffffff 7 800] ------- [7:255 11:255 32 0] 1 [1 1] [0 1 0 0->0] [0 0 0 0->0]
r 5.005701120 _6_ RTR  --- 1 DSR 32 [0 ffffffff 7 800] ------- [7:255 11:255 32 0] 1 [1 1] [0 1 0 0->0] [0 0 0 0->0]
r 5.005701229 _12_ RTR  --- 1 DSR 32 [0 ffffffff 7 800] ------- [7:255 11:255 32 0] 1 [1 1] [0 1 0 0->0] [0 0 0 0->0]
r 5.005701494 _0_ RTR  --- 1 DSR 32 [0 ffffffff 7 800] ------- [7:255 11:255 32 0] 1 [1 1] [0 1 0 0->0] [0 0 0 0->0]
s 5.006244338 _6_ RTR  --- 3 DSR 32 [0 0 0 0] ------- [6:255 5:255 32 0] 1 [1 1] [0 1 0 0->0] [0 0 0 0->0]
r 5.007649593 _12_ RTR  --- 3 DSR 32 [0 ffffffff 6 800] ------- [6:255 5:255 32 0] 1 [1 1] [0 1 0 0->0] [0 0 0 0->0]
r 5.007649751 _9_ RTR  --- 3 DSR 32 [0 ffffffff 6 800] ------- [6:255 5:255 32 0] 1 [1 1] [0 1 0 0->0] [0 0 0 0->0]
r 5.007649818 _7_ RTR  --- 3 DSR 32 [0 ffffffff 6 800] ------- [6:255 5:255 32 0] 1 [1 1] [0 1 0 0->0] [0 0 0 0->0]
r 5.007649879 _10_ RTR  --- 3 DSR 32 [0 ffffffff 6 800] ------- [6:255 5:255 32 0] 1 [1 1] [0 1 0 0->0] [0 0 0 0->0]
r 5.007649983 _4_ RTR  --- 3 DSR 32 [0 ffffffff 6 800] ------- [6:255 5:255 32 0] 1 [1 1] [0 1 0 0->0] [0 0 0 0->0]
r 5.007650050 _3_ RTR  --- 3 DSR 32 [0 ffffffff 6 800] ------- [6:255 5:255 32 0] 1 [1 1] [0 1 0 0->0] [0 0 0 0->0]
r 5.007650180 _11_ RTR  --- 3 DSR 32 [0 ffffffff 6 800] ------- [6:255 5:255 32 0] 1 [1 1] [0 1 0 0->0] [0 0 0 0->0]
s 5.007689568 _0_ RTR  --- 16 DSR 44 [0 0 0 0] ------- [0:255 10:255 254 10] 2 [0 1] [1 1 2 10->0] [0 0 0 0->0]
s 5.009142857 _7_ AGT  --- 17 cbr 512 [0 0 0 0] ------- [7:0 11:0 32 0] [1] 0 0
r 5.009142857 _7_ RTR  --- 17 cbr 512 [0 0 0 0] ------- [7:0 11:0 32 0] [1] 0 0
s 5.009142857 _6_ AGT  --- 19 cbr 512 [0 0 0 0] ------- [6:0 5:0 32 0] [1] 0 0
r 5.009142857 _6_ RTR  --- 19 cbr 512 [0 0 0 0] ------- [6:0 5:0 32 0] [1] 0 0
s 5.009142857 _10_ AGT  --- 21 cbr 512 [0 0 0 0] ------- [10:0 0:0 32 0] [1] 0 0
r 5.009142857 _10_ RTR  --- 21 cbr 512 [0 0 0 0] ------- [10:0 0:0 32 0] [1] 0 0
s 5.009142857 _4_ AGT  --- 23 cbr 512 [0 0 0 0] ------- [4:0 12:0 32 0] [1] 0 0
r 5.009142857 _4_ RTR  --- 23 cbr 512 [0 0 0 0] ------- [4:0 12:0 32 0] [1] 0 0
s 5.009142857 _1_ AGT  --- 25 cbr 512 [0 0 0 0] ------- [1:0 13:0 32 0] [1] 0 0
r 5.009142857 _1_ RTR  --- 25 cbr 512 [0 0 0 0] ------- [1:0 13:0 32 0] [1] 0 0
s 5.009142857 _2_ AGT  --- 27 cbr 512 [0 0 0 0] ------- [2:0 3:0 32 0] [1] 0 0
r 5.009142857 _2_ RTR  --- 27 cbr 512 [0 0 0 0] ------- [2:0 3:0 32 0] [1] 0 0
s 5.009142857 _9_ AGT  --- 29 cbr 512 [0 0 0 0] ------- [9:0 8:0 32 0] [1] 0 0
r 5.009142857 _9_ RTR  --- 29 cbr 512 [0 0 0 0] ------- [9:0 8:0 32 0] [1] 0 0
s 5.009292293 _2_ RTR  --- 11 DSR 32 [0 0 0 0] ------- [2:255 3:255 32 0] 1 [1 1] [0 1 0 0->0] [0 0 0 0->0]
r 5.011223370 _4_ RTR  --- 15 DSR 44 [13a 4 c 800] ------- [12:255 4:255 254 4] 2 [0 1] [1 1 2 4->12] [0 0 0 0->0]
SFESTs 5.011223370 _4_ 6 [4 -> 12] 1(1) to 12 [4 |12 ]
SFESTs 5.011223370 _4_ 23 [4 -> 12] 1(1) to 12 [4 |12 ]
s 5.011223370 _4_ RTR  --- 6 cbr 548 [0 0 0 0] ------- [4:0 12:0 32 12] [0] 0 0
r 5.017393064 _12_ RTR  --- 6 cbr 548 [13a c 4 800] ------- [4:0 12:0 32 12] [0] 1 0
r 5.017393064 _12_ AGT  --- 6 cbr 512 [13a c 4 800] ------- [4:0 12:0 32 12] [0] 1 0
s 5.018285714 _7_ AGT  --- 33 cbr 512 [0 0 0 0] ------- [7:0 11:0 32 0] [2] 0 0
r 5.018285714 _7_ RTR  --- 33 cbr 512 [0 0 0 0] ------- [7:0 11:0 32 0] [2] 0 0
s 5.018285714 _6_ AGT  --- 35 cbr 512 [0 0 0 0] ------- [6:0 5:0 32 0] [2] 0 0
r 5.018285714 _6_ RTR  --- 35 cbr 512 [0 0 0 0] ------- [6:0 5:0 32 0] [2] 0 0
s 5.018285714 _10_ AGT  --- 37 cbr 512 [0 0 0 0] ------- [10:0 0:0 32 0] [2] 0 0
r 5.018285714 _10_ RTR  --- 37 cbr 512 [0 0 0 0] ------- [10:0 0:0 32 0] [2] 0 0
s 5.018285714 _4_ AGT  --- 39 cbr 512 [0 0 0 0] ------- [4:0 12:0 32 0] [2] 0 0
r 5.018285714 _4_ RTR  --- 39 cbr 512 [0 0 0 0] ------- [4:0 12:0 32 0] [2] 0 0
SFESTs 5.018285714 _4_ 39 [4 -> 12] 1(1) to 12 [4 |12 ]
s 5.018285714 _1_ AGT  --- 40 cbr 512 [0 0 0 0] ------- [1:0 13:0 32 0] [2] 0 0
r 5.018285714 _1_ RTR  --- 40 cbr 512 [0 0 0 0] ------- [1:0 13:0 32 0] [2] 0 0
s 5.018285714 _2_ AGT  --- 42 cbr 512 [0 0 0 0] ------- [2:0 3:0 32 0] [2] 0 0
r 5.018285714 _2_ RTR  --- 42 cbr 512 [0 0 0 0] ------- [2:0 3:0 32 0] [2] 0 0
s 5.018285714 _9_ AGT  --- 44 cbr 512 [0 0 0 0] ------- [9:0 8:0 32 0] [2] 0 0
r 5.018285714 _9_ RTR  --- 44 cbr 512 [0 0 0 0] ------- [9:0 8:0 32 0] [2] 0 0
s 5.018285714 _4_ RTR  --- 39 cbr 548 [0 0 0 0] ------- [4:0 12:0 32 12] [2] 0 0
r 5.018903240 _8_ RTR  --- 9 DSR 32 [0 ffffffff 1 800] ------- [1:255 13:255 32 0] 1 [1 1] [0 1 0 0->0] [0 0 0 0->0]
r 5.018903399 _0_ RTR  --- 9 DSR 32 [0 ffffffff 1 800] ------- [1:255 13:255 32 0] 1 [1 1] [0 1 0 0->0] [0 0 0 0->0]
r 5.024040202 _10_ RTR  --- 16 DSR 44 [13a a 0 800] ------- [0:255 10:255 254 10] 2 [0 1] [1 1 2 10->0] [0 0 0 0->0]
SFESTs 5.024040202 _10_ 4 [10 -> 0] 1(1) to 0 [10 |0 ]
SFESTs 5.024040202 _10_ 21 [10 -> 0] 1(1) to 0 [10 |0 ]
SFESTs 5.024040202 _10_ 37 [10 -> 0] 1(1) to 0 [10 |0 ]
s 5.024040202 _10_ RTR  --- 4 cbr 548 [0 0 0 0] ------- [10:0 0:0 32 0] [0] 0 0
s 5.027428571 _7_ AGT  --- 52 cbr 512 [0 0 0 0] ------- [7:0 11:0 32 0] [3] 0 0
r 5.027428571 _7_ RTR  --- 52 cbr 512 [0 0 0 0] ------- [7:0 11:0 32 0] [3] 0 0
s 5.027428571 _6_ AGT  --- 54 cbr 512 [0 0 0 0] ------- [6:0 5:0 32 0] [3] 0 0
r 5.027428571 _6_ RTR  --- 54 cbr 512 [0 0 0 0] ------- [6:0 5:0 32 0] [3] 0 0
s 5.027428571 _10_ AGT  --- 56 cbr 512 [0 0 0 0] ------- [10:0 0:0 32 0] [3] 0 0
r 5.027428571 _10_ RTR  --- 56 cbr 512 [0 0 0 0] ------- [10:0 0:0 32 0] [3] 0 0
SFs 5.027428571 _10_ 56 [10 -> 0] 1(0) to 0 
s 5.027428571 _4_ AGT  --- 57 cbr 512 [0 0 0 0] ------- [4:0 12:0 32 0] [3] 0 0
r 5.027428571 _4_ RTR  --- 57 cbr 512 [0 0 0 0] ------- [4:0 12:0 32 0] [3] 0 0
SFs 5.027428571 _4_ 57 [4 -> 12] 1(0) to 12 
s 5.027428571 _1_ AGT  --- 58 cbr 512 [0 0 0 0] ------- [1:0 13:0 32 0] [3] 0 0
r 5.027428571 _1_ RTR  --- 58 cbr 512 [0 0 0 0] ------- [1:0 13:0 32 0] [3] 0 0
s 5.027428571 _2_ AGT  --- 60 cbr 512 [0 0 0 0] ------- [2:0 3:0 32 0] [3] 0 0
r 5.027428571 _2_ RTR  --- 60 cbr 512 [0 0 0 0] ------- [2:0 3:0 32 0] [3] 0 0
s 5.027428571 _9_ AGT  --- 62 cbr 512 [0 0 0 0] ------- [9:0 8:0 32 0] [3] 0 0
r 5.027428571 _9_ RTR  --- 62 cbr 512 [0 0 0 0] ------- [9:0 8:0 32 0] [3] 0 0
s 5.027428571 _10_ RTR  --- 56 cbr 532 [0 0 0 0] ------- [10:0 0:0 32 0] [3] 0 0
s 5.027428571 _4_ RTR  --- 57 cbr 532 [0 0 0 0] ------- [4:0 12:0 32 12] [3] 0 0
r 5.030314853 _12_ RTR  --- 39 cbr 548 [13a c 4 800] ------- [4:0 12:0 32 12] [2] 1 0
r 5.030314853 _12_ AGT  --- 39 cbr 512 [13a c 4 800] ------- [4:0 12:0 32 12] [2] 1 0
r 5.036294876 _0_ RTR  --- 4 cbr 548 [13a 0 a 800] ------- [10:0 0:0 32 0] [0] 1 0
r 5.036294876 _0_ AGT  --- 4 cbr 512 [13a 0 a 800] ------- [10:0 0:0 32 0] [0] 1 0
s 5.036571429 _7_ AGT  --- 64 cbr 512 [0 0 0 0] ------- [7:0 11:0 32 0] [4] 0 0
r 5.036571429 _7_ RTR  --- 64 cbr 512 [0 0 0 0] ------- [7:0 11:0 32 0] [4] 0 0
s 5.036571429 _6_ AGT  --- 66 cbr 512 [0 0 0 0] ------- [6:0 5:0 32 0] [4] 0 0
r 5.036571429 _6_ RTR  --- 66 cbr 512 [0 0 0 0] ------- [6:0 5:0 32 0] [4] 0 0
s 5.036571429 _10_ AGT  --- 68 cbr 512 [0 0 0 0] ------- [10:0 0:0 32 0] [4] 0 0
r 5.036571429 _10_ RTR  --- 68 cbr 512 [0 0 0 0] ------- [10:0 0:0 32 0] [4] 0 0
SFs 5.036571429 _10_ 68 [10 -> 0] 1(0) to 0 
s 5.036571429 _4_ AGT  --- 69 cbr 512 [0 0 0 0] ------- [4:0 12:0 32 0] [4] 0 0
r 5.036571429 _4_ RTR  --- 69 cbr 512 [0 0 0 0] ------- [4:0 12:0 32 0] [4] 0 0
SFs 5.036571429 _4_ 69 [4 -> 12] 1(0) to 12 
s 5.036571429 _1_ AGT  --- 70 cbr 512 [0 0 0 0] ------- [1:0 13:0 32 0] [4] 0 0
r 5.036571429 _1_ RTR  --- 70 cbr 512 [0 0 0 0] ------- [1:0 13:0 32 0] [4] 0 0
s 5.036571429 _2_ AGT  --- 72 cbr 512 [0 0 0 0] ------- [2:0 3:0 32 0] [4] 0 0
r 5.036571429 _2_ RTR  --- 72 cbr 512 [0 0 0 0] ------- [2:0 3:0 32 0] [4] 0 0
s 5.036571429 _9_ AGT  --- 74 cbr 512 [0 0 0 0] ------- [9:0 8:0 32 0] [4] 0 0
r 5.036571429 _9_ RTR  --- 74 cbr 512 [0 0 0 0] ------- [9:0 8:0 32 0] [4] 0 0
s 5.036571429 _10_ RTR  --- 68 cbr 532 [0 0 0 0] ------- [10:0 0:0 32 0] [4] 0 0
s 5.036571429 _4_ RTR  --- 69 cbr 532 [0 0 0 0] ------- [4:0 12:0 32 12] [4] 0 0
s 5.036607868 _7_ RTR  --- 65 DSR 32 [0 0 0 0] ------- [7:255 11:255 32 0] 1 [1 2] [0 2 0 0->0] [0 0 0 0->0]
s 5.037682045 _1_ RTR  --- 71 DSR 32 [0 0 0 0] ------- [1:255 13:255 32 0] 1 [1 2] [0 2 0 0->0] [0 0 0 0->0]
s 5.038359374 _9_ RTR  --- 75 DSR 32 [0 0 0 0] ------- [9:255 8:255 32 0] 1 [1 2] [0 2 0 0->0] [0 0 0 0->0]
s 5.041015284 _6_ RTR  --- 67 DSR 32 [0 0 0 0] ------- [6:255 5:255 32 0] 1 [1 2] [0 2 0 0->0] [0 0 0 0->0]
s 5.041223370 _4_ RTR  --- 23 cbr 548 [0 0 0 0] ------- [4:0 12:0 32 12] [1] 0 0
r 5.042157049 _0_ RTR  --- 56 cbr 532 [13a 0 a 800] ------- [10:0 0:0 32 0] [3] 1 0
r 5.042157049 _0_ AGT  --- 56 cbr 512 [13a 0 a 800] ------- [10:0 0:0 32 0] [3] 1 0
s 5.043666835 _2_ RTR  --- 73 DSR 32 [0 0 0 0] ------- [2:255 3:255 32 0] 1 [1 2] [0 2 0 0->0] [0 0 0 0->0]
s 5.045714286 _7_ AGT  --- 76 cbr 512 [0 0 0 0] ------- [7:0 11:0 32 0] [5] 0 0
r 5.045714286 _7_ RTR  --- 76 cbr 512 [0 0 0 0] ------- [7:0 11:0 32 0] [5] 0 0
s 5.045714286 _6_ AGT  --- 78 cbr 512 [0 0 0 0] ------- [6:0 5:0 32 0] [5] 0 0
r 5.045714286 _6_ RTR  --- 78 cbr 512 [0 0 0 0] ------- [6:0 5:0 32 0] [5] 0 0
s 5.045714286 _10_ AGT  --- 80 cbr 512 [0 0 0 0] ------- [10:0 0:0 32 0] [5] 0 0
r 5.045714286 _10_ RTR  --- 80 cbr 512 [0 0 0 0] ------- [10:0 0:0 32 0] [5] 0 0
SFs 5.045714286 _10_ 80 [10 -> 0] 1(0) to 0 
s 5.045714286 _4_ AGT  --- 81 cbr 512 [0 0 0 0] ------- [4:0 12:0 32 0] [5] 0 0
r 5.045714286 _4_ RTR  --- 81 cbr 512 [0 0 0 0] ------- [4:0 12:0 32 0] [5] 0 0
SFs 5.045714286 _4_ 81 [4 -> 12] 1(0) to 12 
s 5.045714286 _1_ AGT  --- 82 cbr 512 [0 0 0 0] ------- [1:0 13:0 32 0] [5] 0 0
r 5.045714286 _1_ RTR  --- 82 cbr 512 [0 0 0 0] ------- [1:0 13:0 32 0] [5] 0 0
s 5.045714286 _2_ AGT  --- 84 cbr 512 [0 0 0 0] ------- [2:0 3:0 32 0] [5] 0 0
r 5.045714286 _2_ RTR  --- 84 cbr 512 [0 0 0 0] ------- [2:0 3:0 32 0] [5] 0 0
s 5.045714286 _9_ AGT  --- 86 cbr 512 [0 0 0 0] ------- [9:0 8:0 32 0] [5] 0 0
r 5.045714286 _9_ RTR  --- 86 cbr 512 [0 0 0 0] ------- [9:0 8:0 32 0] [5] 0 0
s 5.045714286 _10_ RTR  --- 80 cbr 532 [0 0 0 0] ------- [10:0 0:0 32 0] [5] 0 0
s 5.045714286 _4_ RTR  --- 81 cbr 532 [0 0 0 0] ------- [4:0 12:0 32 12] [5] 0 0
r 5.047999222 _0_ RTR  --- 68 cbr 532 [13a 0 a 800] ------- [10:0 0:0 32 0] [4] 1 0
r 5.047999222 _0_ AGT  --- 68 cbr 512 [13a 0 a 800] ------- [10:0 0:0 32 0] [4] 1 0
r 5.049124080 _9_ RTR  --- 65 DSR 32 [0 ffffffff 7 800] ------- [7:255 11:255 32 0] 1 [1 2] [0 2 0 0->0] [0 0 0 0->0]
r 5.049124240 _10_ RTR  --- 65 DSR 32 [0 ffffffff 7 800] ------- [7:255 11:255 32 0] 1 [1 2] [0 2 0 0->0] [0 0 0 0->0]
r 5.049124409 _6_ RTR  --- 65 DSR 32 [0 ffffffff 7 800] ------- [7:255 11:255 32 0] 1 [1 2] [0 2 0 0->0] [0 0 0 0->0]
r 5.049124518 _12_ RTR  --- 65 DSR 32 [0 ffffffff 7 800] ------- [7:255 11:255 32 0] 1 [1 2] [0 2 0 0->0] [0 0 0 0->0]
r 5.049124782 _0_ RTR  --- 65 DSR 32 [0 ffffffff 7 800] ------- [7:255 11:255 32 0] 1 [1 2] [0 2 0 0->0] [0 0 0 0->0]
f 5.049493713 _9_ RTR  --- 65 DSR 48 [0 ffffffff 7 800] ------- [7:255 11:255 32 0] 2 [1 2] [0 2 0 0->0] [0 0 0 0->0]
f 5.049807130 _6_ RTR  --- 65 DSR 48 [0 ffffffff 7 800] ------- [7:255 11:255 32 0] 2 [1 2] [0 2 0 0->0] [0 0 0 0->0]
r 5.049954158 _7_ RTR  --- 75 DSR 32 [0 ffffffff 9 800] ------- [9:255 8:255 32 0] 1 [1 2] [0 2 0 0->0] [0 0 0 0->0]
r 5.049954361 _10_ RTR  --- 75 DSR 32 [0 ffffffff 9 800] ------- [9:255 8:255 32 0] 1 [1 2] [0 2 0 0->0] [0 0 0 0->0]
r 5.049954420 _6_ RTR  --- 75 DSR 32 [0 ffffffff 9 800] ------- [9:255 8:255 32 0] 1 [1 2] [0 2 0 0->0] [0 0 0 0->0]
r 5.049954519 _12_ RTR  --- 75 DSR 32 [0 ffffffff 9 800] ------- [9:255 8:255 32 0] 1 [1 2] [0 2 0 0->0] [0 0 0 0->0]
r 5.049954892 _0_ RTR  --- 75 DSR 32 [0 ffffffff 9 800] ------- [9:255 8:255 32 0] 1 [1 2] [0 2 0 0->0] [0 0 0 0->0]
f 5.050830098 _12_ RTR  --- 65 DSR 48 [0 ffffffff 7 800] ------- [7:255 11:255 32 0] 2 [1 2] [0 2 0 0->0] [0 0 0 0->0]
f 5.051004295 _0_ RTR  --- 65 DSR 48 [0 ffffffff 7 800] ------- [7:255 11:255 32 0] 2 [1 2] [0 2 0 0->0] [0 0 0 0->0]
f 5.051773222 _6_ RTR  --- 75 DSR 48 [0 ffffffff 9 800] ------- [9:255 8:255 32 0] 2 [1 2] [0 2 0 0->0] [0 0 0 0->0]
f 5.053990300 _7_ RTR  --- 75 DSR 48 [0 ffffffff 9 800] ------- [9:255 8:255 32 0] 2 [1 2] [0 2 0 0->0] [0 0 0 0->0]
s 5.054040202 _10_ RTR  --- 21 cbr 548 [0 0 0 0] ------- [10:0 0:0 32 0] [1] 0 0
s 5.054857143 _7_ AGT  --- 106 cbr 512 [0 0 0 0] ------- [7:0 11:0 32 0] [6] 0 0
r 5.054857143 _7_ RTR  --- 106 cbr 512 [0 0 0 0] ------- [7:0 11:0 32 0] [6] 0 0
s 5.054857143 _6_ AGT  --- 108 cbr 512 [0 0 0 0] ------- [6:0 5:0 32 0] [6] 0 0
r 5.054857143 _6_ RTR  --- 108 cbr 512 [0 0 0 0] ------- [6:0 5:0 32 0] [6] 0 0
s 5.054857143 _10_ AGT  --- 110 cbr 512 [0 0 0 0] ------- [10:0 0:0 32 0] [6] 0 0
r 5.054857143 _10_ RTR  --- 110 cbr 512 [0 0 0 0] ------- [10:0 0:0 32 0] [6] 0 0
SFs 5.054857143 _10_ 110 [10 -> 0] 1(0) to 0 
s 5.054857143 _4_ AGT  --- 111 cbr 512 [0 0 0 0] ------- [4:0 12:0 32 0] [6] 0 0
r 5.054857143 _4_ RTR  --- 111 cbr 512 [0 0 0 0] ------- [4:0 12:0 32 0] [6] 0 0
SFs 5.054857143 _4_ 111 [4 -> 12] 1(0) to 12 
s 5.054857143 _1_ AGT  --- 112 cbr 512 [0 0 0 0] ------- [1:0 13:0 32 0] [6] 0 0
r 5.054857143 _1_ RTR  --- 112 cbr 512 [0 0 0 0] ------- [1:0 13:0 32 0] [6] 0 0
s 5.054857143 _2_ AGT  --- 114 cbr 512 [0 0 0 0] ------- [2:0 3:0 32 0] [6] 0 0
r 5.054857143 _2_ RTR  --- 114 cbr 512 [0 0 0 0] ------- [2:0 3:0 32 0] [6] 0 0
s 5.054857143 _9_ AGT  --- 116 cbr 512 [0 0 0 0] ------- [9:0 8:0 32 0] [6] 0 0
r 5.054857143 _9_ RTR  --- 116 cbr 512 [0 0 0 0] ------- [9:0 8:0 32 0] [6] 0 0
s 5.054857143 _10_ RTR  --- 110 cbr 532 [0 0 0 0] ------- [10:0 0:0 32 0] [6] 0 0
s 5.054857143 _4_ RTR  --- 111 cbr 532 [0 0 0 0] ------- [4:0 12:0 32 12] [6] 0 0
r 5.055601991 _0_ RTR  --- 80 cbr 532 [13a 0 a 800] ------- [10:0 0:0 32 0] [5] 1 0
r 5.055601991 _0_ AGT  --- 80 cbr 512 [13a 0 a 800] ------- [10:0 0:0 32 0] [5] 1 0
f 5.055645415 _0_ RTR  --- 75 DSR 48 [0 ffffffff 9 800] ------- [9:255 8:255 32 0] 2 [1 2] [0 2 0 0->0] [0 0 0 0->0]
f 5.055647691 _10_ RTR  --- 65 DSR 48 [0 ffffffff 7 800] ------- [7:255 11:255 32 0] 2 [1 2] [0 2 0 0->0] [0 0 0 0->0]
r 5.057034849 _9_ RTR  --- 75 DSR 48 [0 ffffffff 7 800] ------- [9:255 8:255 32 0] 2 [1 2] [0 2 0 0->0] [0 0 0 0->0]
r 5.057035009 _10_ RTR  --- 75 DSR 48 [0 ffffffff 7 800] ------- [9:255 8:255 32 0] 2 [1 2] [0 2 0 0->0] [0 0 0 0->0]
r 5.057035178 _6_ RTR  --- 75 DSR 48 [0 ffffffff 7 800] ------- [9:255 8:255 32 0] 2 [1 2] [0 2 0 0->0] [0 0 0 0->0]
r 5.057035287 _12_ RTR  --- 75 DSR 48 [0 ffffffff 7 800] ------- [9:255 8:255 32 0] 2 [1 2] [0 2 0 0->0] [0 0 0 0->0]
r 5.057035551 _0_ RTR  --- 75 DSR 48 [0 ffffffff 7 800] ------- [9:255 8:255 32 0] 2 [1 2] [0 2 0 0->0] [0 0 0 0->0]
r 5.057973469 _6_ RTR  --- 65 DSR 48 [0 ffffffff c 800] ------- [7:255 11:255 32 0] 2 [1 2] [0 2 0 0->0] [0 0 0 0->0]
r 5.057973726 _9_ RTR  --- 65 DSR 48 [0 ffffffff c 800] ------- [7:255 11:255 32 0] 2 [1 2] [0 2 0 0->0] [0 0 0 0->0]
r 5.057973791 _3_ RTR  --- 65 DSR 48 [0 ffffffff c 800] ------- [7:255 11:255 32 0] 2 [1 2] [0 2 0 0->0] [0 0 0 0->0]
r 5.057973803 _7_ RTR  --- 65 DSR 48 [0 ffffffff c 800] ------- [7:255 11:255 32 0] 2 [1 2] [0 2 0 0->0] [0 0 0 0->0]
r 5.057973852 _4_ RTR  --- 65 DSR 48 [0 ffffffff c 800] ------- [7:255 11:255 32 0] 2 [1 2] [0 2 0 0->0] [0 0 0 0->0]
r 5.057973915 _10_ RTR  --- 65 DSR 48 [0 ffffffff c 800] ------- [7:255 11:255 32 0] 2 [1 2] [0 2 0 0->0] [0 0 0 0->0]
r 5.057974102 _11_ RTR  --- 65 DSR 48 [0 ffffffff c 800] ------- [7:255 11:255 32 0] 2 [1 2] [0 2 0 0->0] [0 0 0 0->0]
f 5.058045978 _12_ RTR  --- 75 DSR 48 [0 ffffffff 9 800] ------- [9:255 8:255 32 0] 2 [1 2] [0 2 0 0->0] [0 0 0 0->0]
r 5.058892153 _7_ RTR  --- 65 DSR 48 [0 ffffffff a 800] ------- [7:255 11:255 32 0] 2 [1 2] [0 2 0 0->0] [0 0 0 0->0]
r 5.058892197 _9_ RTR  --- 65 DSR 48 [0 ffffffff a 800] ------- [7:255 11:255 32 0] 2 [1 2] [0 2 0 0->0] [0 0 0 0->0]
r 5.058892383 _6_ RTR  --- 65 DSR 48 [0 ffffffff a 800] ------- [7:255 11:255 32 0] 2 [1 2] [0 2 0 0->0] [0 0 0 0->0]
r 5.058892459 _0_ RTR  --- 65 DSR 48 [0 ffffffff a 800] ------- [7:255 11:255 32 0] 2 [1 2] [0 2 0 0->0] [0 0 0 0->0]
r 5.058892544 _12_ RTR  --- 65 DSR 48 [0 ffffffff a 800] ------- [7:255 11:255 32 0] 2 [1 2] [0 2 0 0->0] [0 0 0 0->0]
f 5.059522482 _10_ RTR  --- 75 DSR 48 [0 ffffffff 9 800] ------- [9:255 8:255 32 0] 2 [1 2] [0 2 0 0->0] [0 0 0 0->0]
r 5.059810275 _7_ RTR  --- 65 DSR 48 [0 ffffffff 9 800] ------- [7:255 11:255 32 0] 2 [1 2] [0 2 0 0->0] [0 0 0 0->0]
r 5.059810478 _10_ RTR  --- 65 DSR 48 [0 ffffffff 9 800] ------- [7:255 11:255 32 0] 2 [1 2] [0 2 0 0->0] [0 0 0 0->0]
r 5.059810537 _6_ RTR  --- 65 DSR 48 [0 ffffffff 9 800] ------- [7:255 11:255 32 0] 2 [1 2] [0 2 0 0->0] [0 0 0 0->0]
r 5.059810636 _12_ RTR  --- 65 DSR 48 [0 ffffffff 9 800] ------- [7:255 11:255 32 0] 2 [1 2] [0 2 0 0->0] [0 0 0 0->0]
r 5.059811010 _0_ RTR  --- 65 DSR 48 [0 ffffffff 9 800] ------- [7:255 11:255 32 0] 2 [1 2] [0 2 0 0->0] [0 0 0 0->0]
f 5.060893472 _4_ RTR  --- 65 DSR 68 [0 ffffffff c 800] ------- [7:255 11:255 32 0] 3 [1 2] [0 2 0 0->0] [0 0 0 0->0]
s 5.063720916 _11_ RTR  --- 118 DSR 52 [0 0 0 0] ------- [11:255 7:255 254 12] 3 [0 2] [1 2 3 7->11] [0 0 0 0->0]
s 5.064000000 _7_ AGT  --- 119 cbr 512 [0 0 0 0] ------- [7:0 11:0 32 0] [7] 0 0
r 5.064000000 _7_ RTR  --- 119 cbr 512 [0 0 0 0] ------- [7:0 11:0 32 0] [7] 0 0
s 5.064000000 _6_ AGT  --- 121 cbr 512 [0 0 0 0] ------- [6:0 5:0 32 0] [7] 0 0
r 5.064000000 _6_ RTR  --- 121 cbr 512 [0 0 0 0] ------- [6:0 5:0 32 0] [7] 0 0
s 5.064000000 _10_ AGT  --- 123 cbr 512 [0 0 0 0] ------- [10:0 0:0 32 0] [7] 0 0
r 5.064000000 _10_ RTR  --- 123 cbr 512 [0 0 0 0] ------- [10:0 0:0 32 0] [7] 0 0
SFs 5.064000000 _10_ 123 [10 -> 0] 1(0) to 0 
s 5.064000000 _4_ AGT  --- 124 cbr 512 [0 0 0 0] ------- [4:0 12:0 32 0] [7] 0 0
r 5.064000000 _4_ RTR  --- 124 cbr 512 [0 0 0 0] ------- [4:0 12:0 32 0] [7] 0 0
SFs 5.064000000 _4_ 124 [4 -> 12] 1(0) to 12 
s 5.064000000 _1_ AGT  --- 125 cbr 512 [0 0 0 0] ------- [1:0 13:0 32 0] [7] 0 0
r 5.064000000 _1_ RTR  --- 125 cbr 512 [0 0 0 0] ------- [1:0 13:0 32 0] [7] 0 0
s 5.064000000 _2_ AGT  --- 127 cbr 512 [0 0 0 0] ------- [2:0 3:0 32 0] [7] 0 0
r 5.064000000 _2_ RTR  --- 127 cbr 512 [0 0 0 0] ------- [2:0 3:0 32 0] [7] 0 0
s 5.064000000 _9_ AGT  --- 129 cbr 512 [0 0 0 0] ------- [9:0 8:0 32 0] [7] 0 0
r 5.064000000 _9_ RTR  --- 129 cbr 512 [0 0 0 0] ------- [9:0 8:0 32 0] [7] 0 0
s 5.064000000 _10_ RTR  --- 123 cbr 532 [0 0 0 0] ------- [10:0 0:0 32 0] [7] 0 0
s 5.064000000 _4_ RTR  --- 124 cbr 532 [0 0 0 0] ------- [4:0 12:0 32 12] [7] 0 0
r 5.065446108 _0_ RTR  --- 21 cbr 548 [13a 0 a 800] ------- [10:0 0:0 32 0] [1] 1 0
r 5.065446108 _0_ AGT  --- 21 cbr 512 [13a 0 a 800] ------- [10:0 0:0 32 0] [1] 1 0
f 5.066053677 _3_ RTR  --- 65 DSR 68 [0 ffffffff c 800] ------- [7:255 11:255 32 0] 3 [1 2] [0 2 0 0->0] [0 0 0 0->0]
r 5.066818889 _7_ RTR  --- 75 DSR 48 [0 ffffffff a 800] ------- [9:255 8:255 32 0] 2 [1 2] [0 2 0 0->0] [0 0 0 0->0]
r 5.066818933 _9_ RTR  --- 75 DSR 48 [0 ffffffff a 800] ------- [9:255 8:255 32 0] 2 [1 2] [0 2 0 0->0] [0 0 0 0->0]
r 5.066819119 _6_ RTR  --- 75 DSR 48 [0 ffffffff a 800] ------- [9:255 8:255 32 0] 2 [1 2] [0 2 0 0->0] [0 0 0 0->0]
r 5.066819194 _0_ RTR  --- 75 DSR 48 [0 ffffffff a 800] ------- [9:255 8:255 32 0] 2 [1 2] [0 2 0 0->0] [0 0 0 0->0]
r 5.066819279 _12_ RTR  --- 75 DSR 48 [0 ffffffff a 800] ------- [9:255 8:255 32 0] 2 [1 2] [0 2 0 0->0] [0 0 0 0->0]
r 5.067757521 _8_ RTR  --- 65 DSR 48 [0 ffffffff 0 800] ------- [7:255 11:255 32 0] 2 [1 2] [0 2 0 0->0] [0 0 0 0->0]
r 5.067757737 _10_ RTR  --- 65 DSR 48 [0 ffffffff 0 800] ------- [7:255 11:255 32 0] 2 [1 2] [0 2 0 0->0] [0 0 0 0->0]
r 5.067757850 _1_ RTR  --- 65 DSR 48 [0 ffffffff 0 800] ------- [7:255 11:255 32 0] 2 [1 2] [0 2 0 0->0] [0 0 0 0->0]
r 5.067757974 _7_ RTR  --- 65 DSR 48 [0 ffffffff 0 800] ------- [7:255 11:255 32 0] 2 [1 2] [0 2 0 0->0] [0 0 0 0->0]
r 5.067758007 _9_ RTR  --- 65 DSR 48 [0 ffffffff 0 800] ------- [7:255 11:255 32 0] 2 [1 2] [0 2 0 0->0] [0 0 0 0->0]
r 5.068768348 _8_ RTR  --- 71 DSR 32 [0 ffffffff 1 800] ------- [1:255 13:255 32 0] 1 [1 2] [0 2 0 0->0] [0 0 0 0->0]
r 5.068768507 _0_ RTR  --- 71 DSR 32 [0 ffffffff 1 800] ------- [1:255 13:255 32 0] 1 [1 2] [0 2 0 0->0] [0 0 0 0->0]
r 5.070643274 _6_ RTR  --- 75 DSR 48 [0 ffffffff c 800] ------- [9:255 8:255 32 0] 2 [1 2] [0 2 0 0->0] [0 0 0 0->0]
r 5.070643531 _9_ RTR  --- 75 DSR 48 [0 ffffffff c 800] ------- [9:255 8:255 32 0] 2 [1 2] [0 2 0 0->0] [0 0 0 0->0]
r 5.070643596 _3_ RTR  --- 75 DSR 48 [0 ffffffff c 800] ------- [9:255 8:255 32 0] 2 [1 2] [0 2 0 0->0] [0 0 0 0->0]
r 5.070643608 _7_ RTR  --- 75 DSR 48 [0 ffffffff c 800] ------- [9:255 8:255 32 0] 2 [1 2] [0 2 0 0->0] [0 0 0 0->0]
r 5.070643657 _4_ RTR  --- 75 DSR 48 [0 ffffffff c 800] ------- [9:255 8:255 32 0] 2 [1 2] [0 2 0 0->0] [0 0 0 0->0]
r 5.070643721 _10_ RTR  --- 75 DSR 48 [0 ffffffff c 800] ------- [9:255 8:255 32 0] 2 [1 2] [0 2 0 0->0] [0 0 0 0->0]
r 5.070643907 _11_ RTR  --- 75 DSR 48 [0 ffffffff c 800] ------- [9:255 8:255 32 0] 2 [1 2] [0 2 0 0->0] [0 0 0 0->0]
f 5.072051507 _1_ RTR  --- 65 DSR 68 [0 ffffffff 0 800] ------- [7:255 11:255 32 0] 3 [1 2] [0 2 0 0->0] [0 0 0 0->0]
s 5.073142857 _7_ AGT  --- 139 cbr 512 [0 0 0 0] ------- [7:0 11:0 32 0] [8] 0 0
r 5.073142857 _7_ RTR  --- 139 cbr 512 [0 0 0 0] ------- [7:0 11:0 32 0] [8] 0 0
s 5.073142857 _6_ AGT  --- 141 cbr 512 [0 0 0 0] ------- [6:0 5:0 32 0] [8] 0 0
r 5.073142857 _6_ RTR  --- 141 cbr 512 [0 0 0 0] ------- [6:0 5:0 32 0] [8] 0 0
s 5.073142857 _10_ AGT  --- 143 cbr 512 [0 0 0 0] ------- [10:0 0:0 32 0] [8] 0 0
r 5.073142857 _10_ RTR  --- 143 cbr 512 [0 0 0 0] ------- [10:0 0:0 32 0] [8] 0 0
SFs 5.073142857 _10_ 143 [10 -> 0] 1(0) to 0 
s 5.073142857 _4_ AGT  --- 144 cbr 512 [0 0 0 0] ------- [4:0 12:0 32 0] [8] 0 0
r 5.073142857 _4_ RTR  --- 144 cbr 512 [0 0 0 0] ------- [4:0 12:0 32 0] [8] 0 0
SFs 5.073142857 _4_ 144 [4 -> 12] 1(0) to 12 
s 5.073142857 _1_ AGT  --- 145 cbr 512 [0 0 0 0] ------- [1:0 13:0 32 0] [8] 0 0
r 5.073142857 _1_ RTR  --- 145 cbr 512 [0 0 0 0] ------- [1:0 13:0 32 0] [8] 0 0
s 5.073142857 _2_ AGT  --- 147 cbr 512 [0 0 0 0] ------- [2:0 3:0 32 0] [8] 0 0
r 5.073142857 _2_ RTR  --- 147 cbr 512 [0 0 0 0] ------- [2:0 3:0 32 0] [8] 0 0
s 5.073142857 _9_ AGT  --- 149 cbr 512 [0 0 0 0] ------- [9:0 8:0 32 0] [8] 0 0
r 5.073142857 _9_ RTR  --- 149 cbr 512 [0 0 0 0] ------- [9:0 8:0 32 0] [8] 0 0
s 5.073142857 _10_ RTR  --- 143 cbr 532 [0 0 0 0] ------- [10:0 0:0 32 0] [8] 0 0
s 5.073142857 _4_ RTR  --- 144 cbr 532 [0 0 0 0] ------- [4:0 12:0 32 12] [8] 0 0
f 5.073401307 _4_ RTR  --- 75 DSR 68 [0 ffffffff c 800] ------- [9:255 8:255 32 0] 3 [1 2] [0 2 0 0->0] [0 0 0 0->0]
f 5.073445718 _3_ RTR  --- 75 DSR 68 [0 ffffffff c 800] ------- [9:255 8:255 32 0] 3 [1 2] [0 2 0 0->0] [0 0 0 0->0]
f 5.074184029 _8_ RTR  --- 71 DSR 48 [0 ffffffff 1 800] ------- [1:255 13:255 32 0] 2 [1 2] [0 2 0 0->0] [0 0 0 0->0]
f 5.075368776 _0_ RTR  --- 71 DSR 48 [0 ffffffff 1 800] ------- [1:255 13:255 32 0] 2 [1 2] [0 2 0 0->0] [0 0 0 0->0]
f 5.075702142 _8_ RTR  --- 65 DSR 68 [0 ffffffff 0 800] ------- [7:255 11:255 32 0] 3 [1 2] [0 2 0 0->0] [0 0 0 0->0]
r 5.076131351 _12_ RTR  --- 57 cbr 532 [13a c 4 800] ------- [4:0 12:0 32 12] [3] 1 0
r 5.076131351 _12_ AGT  --- 57 cbr 512 [13a c 4 800] ------- [4:0 12:0 32 12] [3] 1 0
r 5.077235715 _12_ RTR  --- 67 DSR 32 [0 ffffffff 6 800] ------- [6:255 5:255 32 0] 1 [1 2] [0 2 0 0->0] [0 0 0 0->0]
r 5.077235873 _9_ RTR  --- 67 DSR 32 [0 ffffffff 6 800] ------- [6:255 5:255 32 0] 1 [1 2] [0 2 0 0->0] [0 0 0 0->0]
r 5.077235940 _7_ RTR  --- 67 DSR 32 [0 ffffffff 6 800] ------- [6:255 5:255 32 0] 1 [1 2] [0 2 0 0->0] [0 0 0 0->0]
r 5.077236001 _10_ RTR  --- 67 DSR 32 [0 ffffffff 6 800] ------- [6:255 5:255 32 0] 1 [1 2] [0 2 0 0->0] [0 0 0 0->0]
f 5.077376936 _12_ RTR  --- 67 DSR 48 [0 ffffffff 6 800] ------- [6:255 5:255 32 0] 2 [1 2] [0 2 0 0->0] [0 0 0 0->0]
f 5.080260395 _11_ RTR  --- 75 DSR 68 [0 ffffffff c 800] ------- [9:255 8:255 32 0] 3 [1 2] [0 2 0 0->0] [0 0 0 0->0]
f 5.080543806 _9_ RTR  --- 67 DSR 48 [0 ffffffff 6 800] ------- [6:255 5:255 32 0] 2 [1 2] [0 2 0 0->0] [0 0 0 0->0]
s 5.082285714 _7_ AGT  --- 160 cbr 512 [0 0 0 0] ------- [7:0 11:0 32 0] [9] 0 0
r 5.082285714 _7_ RTR  --- 160 cbr 512 [0 0 0 0] ------- [7:0 11:0 32 0] [9] 0 0
s 5.082285714 _6_ AGT  --- 162 cbr 512 [0 0 0 0] ------- [6:0 5:0 32 0] [9] 0 0
r 5.082285714 _6_ RTR  --- 162 cbr 512 [0 0 0 0] ------- [6:0 5:0 32 0] [9] 0 0
s 5.082285714 _10_ AGT  --- 164 cbr 512 [0 0 0 0] ------- [10:0 0:0 32 0] [9] 0 0
r 5.082285714 _10_ RTR  --- 164 cbr 512 [0 0 0 0] ------- [10:0 0:0 32 0] [9] 0 0
SFs 5.082285714 _10_ 164 [10 -> 0] 1(0) to 0 
s 5.082285714 _4_ AGT  --- 165 cbr 512 [0 0 0 0] ------- [4:0 12:0 32 0] [9] 0 0
r 5.082285714 _4_ RTR  --- 165 cbr 512 [0 0 0 0] ------- [4:0 12:0 32 0] [9] 0 0
SFs 5.082285714 _4_ 165 [4 -> 12] 1(0) to 12 
s 5.082285714 _1_ AGT  --- 166 cbr 512 [0 0 0 0] ------- [1:0 13:0 32 0] [9] 0 0
r 5.082285714 _1_ RTR  --- 166 cbr 512 [0 0 0 0] ------- [1:0 13:0 32 0] [9] 0 0