Sconfig 0.00000 tap: on snoop: rts? on errs? on
Sconfig 0.00000 salvage: on !bd replies? on
Sconfig 0.00000 grat error: on grat reply: on
Sconfig 0.00000 $reply for props: on ring 0 search: on
Sconfig 0.00000 using MOBICACHE
M 5.00000 0 (135.00, 275.00, 0.00), (441.00, 361.00), 12.00
M 5.00000 1 (372.00, 126.00, 0.00), (352.00, 256.00), 12.00
M 5.00000 2 (241.00, 264.00, 0.00), (499.00, 260.00), 12.00
M 5.00000 3 (127.00, 289.00, 0.00), (161.00, 98.00), 12.00
M 5.00000 4 (42.00, 331.00, 0.00), (150.00, 443.00), 12.00
M 5.00000 5 (300.00, 62.00, 0.00), (313.00, 415.00), 12.00
M 5.00000 6 (369.00, 229.00, 0.00), (212.00, 13.00), 12.00
M 5.00000 7 (130.00, 19.00, 0.00), (116.00, 188.00), 12.00
M 5.00000 8 (325.00, 105.00, 0.00), (131.00, 88.00), 12.00
M 5.00000 9 (314.00, 81.00, 0.00), (1.00, 406.00), 12.00
M 5.00000 10 (290.00, 380.00, 0.00), (437.00, 468.00), 12.00
M 5.00000 11 (80.00, 271.00, 0.00), (284.00, 117.00), 12.00
M 5.00000 12 (410.00, 214.00, 0.00), (465.00, 155.00), 12.00
M 5.00000 13 (474.00, 86.00, 0.00), (67.00, 208.00), 12.00
s 5.000000000 _7_ AGT  --- 0 cbr 512 [0 0 0 0] ------- [7:0 11:0 32 0] [0] 0 0
r 5.000000000 _7_ RTR  --- 0 cbr 512 [0 0 0 0] ------- [7:0 11:0 32 0] [0] 0 0
s 5.000000000 _6_ AGT  --- 2 cbr 512 [0 0 0 0] ------- [6:0 5:0 32 0] [0] 0 0
r 5.000000000 _6_ RTR  --- 2 cbr 512 [0 0 0 0] ------- [6:0 5:0 32 0] [0] 0 0
s 5.000000000 _10_ AGT  --- 4 cbr 512 [0 0 0 0] ------- [10:0 0:0 32 0] [0] 0 0
r 5.000000000 _10_ RTR  --- 4 cbr 512 [0 0 0 0] ------- [10:0 0:0 32 0] [0] 0 0
s 5.000000000 _4_ AGT  --- 6 cbr 512 [0 0 0 0] ------- [4:0 12:0 32 0] [0] 0 0
r 5.000000000 _4_ RTR  --- 6 cbr 512 [0 0 0 0] ------- [4:0 12:0 32 0] [0] 0 0
s 5.000000000 _1_ AGT  --- 8 cbr 512 [0 0 0 0] ------- [1:0 13:0 32 0] [0] 0 0
r 5.000000000 _1_ RTR  --- 8 cbr 512 [0 0 0 0] ------- [1:0 13:0 32 0] [0] 0 0
s 5.000000000 _2_ AGT  --- 10 cbr 512 [0 0 0 0] ------- [2:0 3:0 32 0] [0] 0 0
r 5.000000000 _2_ RTR  --- 10 cbr 512 [0 0 0 0] ------- [2:0 3:0 32 0] [0] 0 0
s 5.000000000 _9_ AGT  --- 12 cbr 512 [0 0 0 0] ------- [9:0 8:0 32 0] [0] 0 0
r 5.000000000 _9_ RTR  --- 12 cbr 512 [0 0 0 0] ------- [9:0 8:0 32 0] [0] 0 0
s 5.001020609 _9_ RTR  --- 13 DSR 32 [0 0 0 0] ------- [9:255 8:255 32 0] 1 [1 1] [0 1 0 0->0] [0 0 0 0->0]
s 5.001062646 _4_ RTR  --- 7 DSR 32 [0 0 0 0] ------- [4:255 12:255 32 0] 1 [1 1] [0 1 0 0->0] [0 0 0 0->0]
r 5.001900688 _5_ RTR  --- 13 DSR 32 [0 ffffffff 9 800] ------- [9:255 8:255 32 0] 1 [1 1] [0 1 0 0->0] [0 0 0 0->0]
r 5.001900697 _8_ RTR  --- 13 DSR 32 [0 ffffffff 9 800] ------- [9:255 8:255 32 0] 1 [1 1] [0 1 0 0->0] [0 0 0 0->0]
r 5.001900854 _1_ RTR  --- 13 DSR 32 [0 ffffffff 9 800] ------- [9:255 8:255 32 0] 1 [1 1] [0 1 0 0->0] [0 0 0 0->0]
r 5.001901135 _6_ RTR  --- 13 DSR 32 [0 ffffffff 9 800] ------- [9:255 8:255 32 0] 1 [1 1] [0 1 0 0->0] [0 0 0 0->0]
r 5.001901143 _13_ RTR  --- 13 DSR 32 [0 ffffffff 9 800] ------- [9:255 8:255 32 0] 1 [1 1] [0 1 0 0->0] [0 0 0 0->0]
r 5.001901156 _12_ RTR  --- 13 DSR 32 [0 ffffffff 9 800] ------- [9:255 8:255 32 0] 1 [1 1] [0 1 0 0->0] [0 0 0 0->0]
r 5.001901256 _7_ RTR  --- 13 DSR 32 [0 ffffffff 9 800] ------- [9:255 8:255 32 0] 1 [1 1] [0 1 0 0->0] [0 0 0 0->0]
r 5.001901266 _2_ RTR  --- 13 DSR 32 [0 ffffffff 9 800] ------- [9:255 8:255 32 0] 1 [1 1] [0 1 0 0->0] [0 0 0 0->0]
s 5.002356581 _10_ RTR  --- 5 DSR 32 [0 0 0 0] ------- [10:255 0:255 32 0] 1 [1 1] [0 1 0 0->0] [0 0 0 0->0]
s 5.002771051 _7_ RTR  --- 1 DSR 32 [0 0 0 0] ------- [7:255 11:255 32 0] 1 [1 1] [0 1 0 0->0] [0 0 0 0->0]
r 5.003356077 _11_ RTR  --- 7 DSR 32 [0 ffffffff 4 800] ------- [4:255 12:255 32 0] 1 [1 1] [0 1 0 0->0] [0 0 0 0->0]
r 5.003356157 _3_ RTR  --- 7 DSR 32 [0 ffffffff 4 800] ------- [4:255 12:255 32 0] 1 [1 1] [0 1 0 0->0] [0 0 0 0->0]
r 5.003356202 _0_ RTR  --- 7 DSR 32 [0 ffffffff 4 800] ------- [4:255 12:255 32 0] 1 [1 1] [0 1 0 0->0] [0 0 0 0->0]
r 5.003356540 _2_ RTR  --- 7 DSR 32 [0 ffffffff 4 800] ------- [4:255 12:255 32 0] 1 [1 1] [0 1 0 0->0] [0 0 0 0->0]
s 5.003775053 _1_ RTR  --- 9 DSR 32 [0 0 0 0] ------- [1:255 13:255 32 0] 1 [1 1] [0 1 0 0->0] [0 0 0 0->0]
r 5.004531506 _5_ RTR  --- 1 DSR 32 [0 ffffffff 7 800] ------- [7:255 11:255 32 0] 1 [1 1] [0 1 0 0->0] [0 0 0 0->0]
r 5.004531568 _9_ RTR  --- 1 DSR 32 [0 ffffffff 7 800] ------- [7:255 11:255 32 0] 1 [1 1] [0 1 0 0->0] [0 0 0 0->0]
r 5.004531631 _8_ RTR  --- 1 DSR 32 [0 ffffffff 7 800] ------- [7:255 11:255 32 0] 1 [1 1] [0 1 0 0->0] [0 0 0 0->0]
r 5.005745975 _8_ RTR  --- 9 DSR 32 [0 ffffffff 1 800] ------- [1:255 13:255 32 0] 1 [1 1] [0 1 0 0->0] [0 0 0 0->0]
r 5.005746048 _9_ RTR  --- 9 DSR 32 [0 ffffffff 1 800] ------- [1:255 13:255 32 0] 1 [1 1] [0 1 0 0->0] [0 0 0 0->0]
r 5.005746122 _12_ RTR  --- 9 DSR 32 [0 ffffffff 1 800] ------- [1:255 13:255 32 0] 1 [1 1] [0 1 0 0->0] [0 0 0 0->0]
r 5.005746124 _5_ RTR  --- 9 DSR 32 [0 ffffffff 1 800] ------- [1:255 13:255 32 0] 1 [1 1] [0 1 0 0->0] [0 0 0 0->0]
r 5.005746146 _6_ RTR  --- 9 DSR 32 [0 ffffffff 1 800] ------- [1:255 13:255 32 0] 1 [1 1] [0 1 0 0->0] [0 0 0 0->0]
r 5.005746168 _13_ RTR  --- 9 DSR 32 [0 ffffffff 1 800] ------- [1:255 13:255 32 0] 1 [1 1] [0 1 0 0->0] [0 0 0 0->0]
r 5.005746437 _2_ RTR  --- 9 DSR 32 [0 ffffffff 1 800] ------- [1:255 13:255 32 0] 1 [1 1] [0 1 0 0->0] [0 0 0 0->0]
s 5.006244338 _6_ RTR  --- 3 DSR 32 [0 0 0 0] ------- [6:255 5:255 32 0] 1 [1 1] [0 1 0 0->0] [0 0 0 0->0]
s 5.006573753 _8_ RTR  --- 14 DSR 44 [0 0 0 0] ------- [8:255 9:255 254 9] 2 [0 1] [1 1 2 9->8] [0 0 0 0->0]
r 5.007021112 _2_ RTR  --- 5 DSR 32 [0 ffffffff a 800] ------- [10:255 0:255 32 0] 1 [1 1] [0 1 0 0->0] [0 0 0 0->0]
r 5.007021261 _6_ RTR  --- 5 DSR 32 [0 ffffffff a 800] ------- [10:255 0:255 32 0] 1 [1 1] [0 1 0 0->0] [0 0 0 0->0]
r 5.007021315 _3_ RTR  --- 5 DSR 32 [0 ffffffff a 800] ------- [10:255 0:255 32 0] 1 [1 1] [0 1 0 0->0] [0 0 0 0->0]
r 5.007021317 _0_ RTR  --- 5 DSR 32 [0 ffffffff a 800] ------- [10:255 0:255 32 0] 1 [1 1] [0 1 0 0->0] [0 0 0 0->0]
r 5.007021376 _12_ RTR  --- 5 DSR 32 [0 ffffffff a 800] ------- [10:255 0:255 32 0] 1 [1 1] [0 1 0 0->0] [0 0 0 0->0]
r 5.007021481 _11_ RTR  --- 5 DSR 32 [0 ffffffff a 800] ------- [10:255 0:255 32 0] 1 [1 1] [0 1 0 0->0] [0 0 0 0->0]
r 5.008211407 _12_ RTR  --- 3 DSR 32 [0 ffffffff 6 800] ------- [6:255 5:255 32 0] 1 [1 1] [0 1 0 0->0] [0 0 0 0->0]
r 5.008211604 _1_ RTR  --- 3 DSR 32 [0 ffffffff 6 800] ------- [6:255 5:255 32 0] 1 [1 1] [0 1 0 0->0] [0 0 0 0->0]
r 5.008211699 _8_ RTR  --- 3 DSR 32 [0 ffffffff 6 800] ------- [6:255 5:255 32 0] 1 [1 1] [0 1 0 0->0] [0 0 0 0->0]
r 5.008211703 _2_ RTR  --- 3 DSR 32 [0 ffffffff 6 800] ------- [6:255 5:255 32 0] 1 [1 1] [0 1 0 0->0] [0 0 0 0->0]
r 5.008211787 _9_ RTR  --- 3 DSR 32 [0 ffffffff 6 800] ------- [6:255 5:255 32 0] 1 [1 1] [0 1 0 0->0] [0 0 0 0->0]
r 5.008211829 _10_ RTR  --- 3 DSR 32 [0 ffffffff 6 800] ------- [6:255 5:255 32 0] 1 [1 1] [0 1 0 0->0] [0 0 0 0->0]
r 5.008211852 _13_ RTR  --- 3 DSR 32 [0 ffffffff 6 800] ------- [6:255 5:255 32 0] 1 [1 1] [0 1 0 0->0] [0 0 0 0->0]
r 5.008211862 _5_ RTR  --- 3 DSR 32 [0 ffffffff 6 800] ------- [6:255 5:255 32 0] 1 [1 1] [0 1 0 0->0] [0 0 0 0->0]
r 5.008212055 _0_ RTR  --- 3 DSR 32 [0 ffffffff 6 800] ------- [6:255 5:255 32 0] 1 [1 1] [0 1 0 0->0] [0 0 0 0->0]
r 5.008212092 _3_ RTR  --- 3 DSR 32 [0 ffffffff 6 800] ------- [6:255 5:255 32 0] 1 [1 1] [0 1 0 0->0] [0 0 0 0->0]
s 5.009142857 _7_ AGT  --- 19 cbr 512 [0 0 0 0] ------- [7:0 11:0 32 0] [1] 0 0
r 5.009142857 _7_ RTR  --- 19 cbr 512 [0 0 0 0] ------- [7:0 11:0 32 0] [1] 0 0
s 5.009142857 _6_ AGT  --- 21 cbr 512 [0 0 0 0] ------- [6:0 5:0 32 0] [1] 0 0
r 5.009142857 _6_ RTR  --- 21 cbr 512 [0 0 0 0] ------- [6:0 5:0 32 0] [1] 0 0
s 5.009142857 _10_ AGT  --- 23 cbr 512 [0 0 0 0] ------- [10:0 0:0 32 0] [1] 0 0
r 5.009142857 _10_ RTR  --- 23 cbr 512 [0 0 0 0] ------- [10:0 0:0 32 0] [1] 0 0
s 5.009142857 _4_ AGT  --- 25 cbr 512 [0 0 0 0] ------- [4:0 12:0 32 0] [1] 0 0
r 5.009142857 _4_ RTR  --- 25 cbr 512 [0 0 0 0] ------- [4:0 12:0 32 0] [1] 0 0
s 5.009142857 _1_ AGT  --- 27 cbr 512 [0 0 0 0] ------- [1:0 13:0 32 0] [1] 0 0
r 5.009142857 _1_ RTR  --- 27 cbr 512 [0 0 0 0] ------- [1:0 13:0 32 0] [1] 0 0
s 5.009142857 _2_ AGT  --- 29 cbr 512 [0 0 0 0] ------- [2:0 3:0 32 0] [1] 0 0
r 5.009142857 _2_ RTR  --- 29 cbr 512 [0 0 0 0] ------- [2:0 3:0 32 0] [1] 0 0
s 5.009142857 _9_ AGT  --- 31 cbr 512 [0 0 0 0] ------- [9:0 8:0 32 0] [1] 0 0
r 5.009142857 _9_ RTR  --- 31 cbr 512 [0 0 0 0] ------- [9:0 8:0 32 0] [1] 0 0
s 5.009292293 _2_ RTR  --- 11 DSR 32 [0 0 0 0] ------- [2:255 3:255 32 0] 1 [1 1] [0 1 0 0->0] [0 0 0 0->0]
s 5.009514118 _13_ RTR  --- 16 DSR 44 [0 0 0 0] ------- [13:255 1:255 254 1] 2 [0 1] [1 1 2 1->13] [0 0 0 0->0]
r 5.012985313 _9_ RTR  --- 14 DSR 44 [13a 9 8 800] ------- [8:255 9:255 254 9] 2 [0 1] [1 1 2 9->8] [0 0 0 0->0]
SFESTs 5.012985313 _9_ 12 [9 -> 8] 1(1) to 8 [9 |8 ]
SFESTs 5.012985313 _9_ 31 [9 -> 8] 1(1) to 8 [9 |8 ]
s 5.012985313 _9_ RTR  --- 12 cbr 548 [0 0 0 0] ------- [9:0 8:0 32 8] [0] 0 0
r 5.014170324 _0_ RTR  --- 11 DSR 32 [0 ffffffff 2 800] ------- [2:255 3:255 32 0] 1 [1 1] [0 1 0 0->0] [0 0 0 0->0]
r 5.014170358 _3_ RTR  --- 11 DSR 32 [0 ffffffff 2 800] ------- [2:255 3:255 32 0] 1 [1 1] [0 1 0 0->0] [0 0 0 0->0]
r 5.014170389 _10_ RTR  --- 11 DSR 32 [0 ffffffff 2 800] ------- [2:255 3:255 32 0] 1 [1 1] [0 1 0 0->0] [0 0 0 0->0]
r 5.014170410 _6_ RTR  --- 11 DSR 32 [0 ffffffff 2 800] ------- [2:255 3:255 32 0] 1 [1 1] [0 1 0 0->0] [0 0 0 0->0]
r 5.014170506 _11_ RTR  --- 11 DSR 32 [0 ffffffff 2 800] ------- [2:255 3:255 32 0] 1 [1 1] [0 1 0 0->0] [0 0 0 0->0]
r 5.014170556 _12_ RTR  --- 11 DSR 32 [0 ffffffff 2 800] ------- [2:255 3:255 32 0] 1 [1 1] [0 1 0 0->0] [0 0 0 0->0]
r 5.014170568 _8_ RTR  --- 11 DSR 32 [0 ffffffff 2 800] ------- [2:255 3:255 32 0] 1 [1 1] [0 1 0 0->0] [0 0 0 0->0]
r 5.014170602 _1_ RTR  --- 11 DSR 32 [0 ffffffff 2 800] ------- [2:255 3:255 32 0] 1 [1 1] [0 1 0 0->0] [0 0 0 0->0]
r 5.014170625 _9_ RTR  --- 11 DSR 32 [0 ffffffff 2 800] ------- [2:255 3:255 32 0] 1 [1 1] [0 1 0 0->0] [0 0 0 0->0]
r 5.014170669 _4_ RTR  --- 11 DSR 32 [0 ffffffff 2 800] ------- [2:255 3:255 32 0] 1 [1 1] [0 1 0 0->0] [0 0 0 0->0]
r 5.014170669 _5_ RTR  --- 11 DSR 32 [0 ffffffff 2 800] ------- [2:255 3:255 32 0] 1 [1 1] [0 1 0 0->0] [0 0 0 0->0]
s 5.014218727 _5_ RTR  --- 18 DSR 44 [0 0 0 0] ------- [5:255 6:255 254 6] 2 [0 1] [1 1 2 6->5] [0 0 0 0->0]
s 5.014417737 _0_ RTR  --- 17 DSR 44 [0 0 0 0] ------- [0:255 10:255 254 10] 2 [0 1] [1 1 2 10->0] [0 0 0 0->0]
s 5.016265256 _3_ RTR  --- 35 DSR 44 [0 0 0 0] ------- [3:255 2:255 254 2] 2 [0 1] [1 1 2 2->3] [0 0 0 0->0]
s 5.018285714 _7_ AGT  --- 38 cbr 512 [0 0 0 0] ------- [7:0 11:0 32 0] [2] 0 0
r 5.018285714 _7_ RTR  --- 38 cbr 512 [0 0 0 0] ------- [7:0 11:0 32 0] [2] 0 0
s 5.018285714 _6_ AGT  --- 40 cbr 512 [0 0 0 0] ------- [6:0 5:0 32 0] [2] 0 0
r 5.018285714 _6_ RTR  --- 40 cbr 512 [0 0 0 0] ------- [6:0 5:0 32 0] [2] 0 0
s 5.018285714 _10_ AGT  --- 42 cbr 512 [0 0 0 0] ------- [10:0 0:0 32 0] [2] 0 0
r 5.018285714 _10_ RTR  --- 42 cbr 512 [0 0 0 0] ------- [10:0 0:0 32 0] [2] 0 0
s 5.018285714 _4_ AGT  --- 44 cbr 512 [0 0 0 0] ------- [4:0 12:0 32 0] [2] 0 0
r 5.018285714 _4_ RTR  --- 44 cbr 512 [0 0 0 0] ------- [4:0 12:0 32 0] [2] 0 0
s 5.018285714 _1_ AGT  --- 46 cbr 512 [0 0 0 0] ------- [1:0 13:0 32 0] [2] 0 0
r 5.018285714 _1_ RTR  --- 46 cbr 512 [0 0 0 0] ------- [1:0 13:0 32 0] [2] 0 0
s 5.018285714 _2_ AGT  --- 48 cbr 512 [0 0 0 0] ------- [2:0 3:0 32 0] [2] 0 0
r 5.018285714 _2_ RTR  --- 48 cbr 512 [0 0 0 0] ------- [2:0 3:0 32 0] [2] 0 0
s 5.018285714 _9_ AGT  --- 50 cbr 512 [0 0 0 0] ------- [9:0 8:0 32 0] [2] 0 0
r 5.018285714 _9_ RTR  --- 50 cbr 512 [0 0 0 0] ------- [9:0 8:0 32 0] [2] 0 0
SFESTs 5.018285714 _9_ 50 [9 -> 8] 1(1) to 8 [9 |8 ]
s 5.018285714 _9_ RTR  --- 50 cbr 548 [0 0 0 0] ------- [9:0 8:0 32 8] [2] 0 0
r 5.019904887 _8_ RTR  --- 12 cbr 548 [13a 8 9 800] ------- [9:0 8:0 32 8] [0] 1 0
r 5.019904887 _8_ AGT  --- 12 cbr 512 [13a 8 9 800] ------- [9:0 8:0 32 8] [0] 1 0
s 5.027428571 _7_ AGT  --- 57 cbr 512 [0 0 0 0] ------- [7:0 11:0 32 0] [3] 0 0
r 5.027428571 _7_ RTR  --- 57 cbr 512 [0 0 0 0] ------- [7:0 11:0 32 0] [3] 0 0
s 5.027428571 _6_ AGT  --- 59 cbr 512 [0 0 0 0] ------- [6:0 5:0 32 0] [3] 0 0
r 5.027428571 _6_ RTR  --- 59 cbr 512 [0 0 0 0] ------- [6:0 5:0 32 0] [3] 0 0
s 5.027428571 _10_ AGT  --- 61 cbr 512 [0 0 0 0] ------- [10:0 0:0 32 0] [3] 0 0
r 5.027428571 _10_ RTR  --- 61 cbr 512 [0 0 0 0] ------- [10:0 0:0 32 0] [3] 0 0
s 5.027428571 _4_ AGT  --- 63 cbr 512 [0 0 0 0] ------- [4:0 12:0 32 0] [3] 0 0
r 5.027428571 _4_ RTR  --- 63 cbr 512 [0 0 0 0] ------- [4:0 12:0 32 0] [3] 0 0
s 5.027428571 _1_ AGT  --- 65 cbr 512 [0 0 0 0] ------- [1:0 13:0 32 0] [3] 0 0
r 5.027428571 _1_ RTR  --- 65 cbr 512 [0 0 0 0] ------- [1:0 13:0 32 0] [3] 0 0
s 5.027428571 _2_ AGT  --- 67 cbr 512 [0 0 0 0] ------- [2:0 3:0 32 0] [3] 0 0
r 5.027428571 _2_ RTR  --- 67 cbr 512 [0 0 0 0] ------- [2:0 3:0 32 0] [3] 0 0
s 5.027428571 _9_ AGT  --- 69 cbr 512 [0 0 0 0] ------- [9:0 8:0 32 0] [3] 0 0
r 5.027428571 _9_ RTR  --- 69 cbr 512 [0 0 0 0] ------- [9:0 8:0 32 0] [3] 0 0
SFs 5.027428571 _9_ 69 [9 -> 8] 1(0) to 8 
s 5.027428571 _9_ RTR  --- 69 cbr 532 [0 0 0 0] ------- [9:0 8:0 32 8] [3] 0 0
r 5.027710431 _8_ RTR  --- 50 cbr 548 [13a 8 9 800] ------- [9:0 8:0 32 8] [2] 1 0
r 5.027710431 _8_ AGT  --- 50 cbr 512 [13a 8 9 800] ------- [9:0 8:0 32 8] [2] 1 0
s 5.036571429 _7_ AGT  --- 70 cbr 512 [0 0 0 0] ------- [7:0 11:0 32 0] [4] 0 0
r 5.036571429 _7_ RTR  --- 70 cbr 512 [0 0 0 0] ------- [7:0 11:0 32 0] [4] 0 0
s 5.036571429 _6_ AGT  --- 72 cbr 512 [0 0 0 0] ------- [6:0 5:0 32 0] [4] 0 0
r 5.036571429 _6_ RTR  --- 72 cbr 512 [0 0 0 0] ------- [6:0 5:0 32 0] [4] 0 0
s 5.036571429 _10_ AGT  --- 74 cbr 512 [0 0 0 0] ------- [10:0 0:0 32 0] [4] 0 0
r 5.036571429 _10_ RTR  --- 74 cbr 512 [0 0 0 0] ------- [10:0 0:0 32 0] [4] 0 0
s 5.036571429 _4_ AGT  --- 76 cbr 512 [0 0 0 0] ------- [4:0 12:0 32 0] [4] 0 0
r 5.036571429 _4_ RTR  --- 76 cbr 512 [0 0 0 0] ------- [4:0 12:0 32 0] [4] 0 0
s 5.036571429 _1_ AGT  --- 78 cbr 512 [0 0 0 0] ------- [1:0 13:0 32 0] [4] 0 0
r 5.036571429 _1_ RTR  --- 78 cbr 512 [0 0 0 0] ------- [1:0 13:0 32 0] [4] 0 0
s 5.036571429 _2_ AGT  --- 80 cbr 512 [0 0 0 0] ------- [2:0 3:0 32 0] [4] 0 0
r 5.036571429 _2_ RTR  --- 80 cbr 512 [0 0 0 0] ------- [2:0 3:0 32 0] [4] 0 0
s 5.036571429 _9_ AGT  --- 82 cbr 512 [0 0 0 0] ------- [9:0 8:0 32 0] [4] 0 0
r 5.036571429 _9_ RTR  --- 82 cbr 512 [0 0 0 0] ------- [9:0 8:0 32 0] [4] 0 0
SFs 5.036571429 _9_ 82 [9 -> 8] 1(0) to 8 
s 5.036571429 _9_ RTR  --- 82 cbr 532 [0 0 0 0] ------- [9:0 8:0 32 8] [4] 0 0
r 5.037110427 _8_ RTR  --- 69 cbr 532 [13a 8 9 800] ------- [9:0 8:0 32 8] [3] 1 0
r 5.037110427 _8_ AGT  --- 69 cbr 512 [13a 8 9 800] ------- [9:0 8:0 32 8] [3] 1 0
r 5.039028021 _1_ RTR  --- 16 DSR 44 [13a 1 d 800] ------- [13:255 1:255 254 1] 2 [0 1] [1 1 2 1->13] [0 0 0 0->0]
SFESTs 5.039028021 _1_ 8 [1 -> 13] 1(1) to 13 [1 |13 ]
SFESTs 5.039028021 _1_ 27 [1 -> 13] 1(1) to 13 [1 |13 ]
SFESTs 5.039028021 _1_ 46 [1 -> 13] 1(1) to 13 [1 |13 ]
SFs 5.039028021 _1_ 65 [1 -> 13] 1(0) to 13 
SFs 5.039028021 _1_ 78 [1 -> 13] 1(0) to 13 
s 5.039028021 _1_ RTR  --- 8 cbr 548 [0 0 0 0] ------- [1:0 13:0 32 13] [0] 0 0
s 5.039734960 _2_ RTR  --- 81 DSR 32 [0 0 0 0] ------- [2:255 3:255 32 0] 1 [1 2] [0 2 0 0->0] [0 0 0 0->0]
s 5.040387382 _4_ RTR  --- 77 DSR 32 [0 0 0 0] ------- [4:255 12:255 32 0] 1 [1 2] [0 2 0 0->0] [0 0 0 0->0]
s 5.041925920 _10_ RTR  --- 75 DSR 32 [0 0 0 0] ------- [10:255 0:255 32 0] 1 [1 2] [0 2 0 0->0] [0 0 0 0->0]
s 5.042985313 _9_ RTR  --- 31 cbr 548 [0 0 0 0] ------- [9:0 8:0 32 8] [1] 0 0
s 5.044122239 _6_ RTR  --- 73 DSR 32 [0 0 0 0] ------- [6:255 5:255 32 0] 1 [1 2] [0 2 0 0->0] [0 0 0 0->0]
r 5.044848527 _8_ RTR  --- 82 cbr 532 [13a 8 9 800] ------- [9:0 8:0 32 8] [4] 1 0
r 5.044848527 _8_ AGT  --- 82 cbr 512 [13a 8 9 800] ------- [9:0 8:0 32 8] [4] 1 0
s 5.045714286 _7_ AGT  --- 83 cbr 512 [0 0 0 0] ------- [7:0 11:0 32 0] [5] 0 0
r 5.045714286 _7_ RTR  --- 83 cbr 512 [0 0 0 0] ------- [7:0 11:0 32 0] [5] 0 0
s 5.045714286 _6_ AGT  --- 85 cbr 512 [0 0 0 0] ------- [6:0 5:0 32 0] [5] 0 0
r 5.045714286 _6_ RTR  --- 85 cbr 512 [0 0 0 0] ------- [6:0 5:0 32 0] [5] 0 0
s 5.045714286 _10_ AGT  --- 87 cbr 512 [0 0 0 0] ------- [10:0 0:0 32 0] [5] 0 0
r 5.045714286 _10_ RTR  --- 87 cbr 512 [0 0 0 0] ------- [10:0 0:0 32 0] [5] 0 0
s 5.045714286 _4_ AGT  --- 89 cbr 512 [0 0 0 0] ------- [4:0 12:0 32 0] [5] 0 0
r 5.045714286 _4_ RTR  --- 89 cbr 512 [0 0 0 0] ------- [4:0 12:0 32 0] [5] 0 0
s 5.045714286 _1_ AGT  --- 91 cbr 512 [0 0 0 0] ------- [1:0 13:0 32 0] [5] 0 0
r 5.045714286 _1_ RTR  --- 91 cbr 512 [0 0 0 0] ------- [1:0 13:0 32 0] [5] 0 0
SFs 5.045714286 _1_ 91 [1 -> 13] 1(0) to 13 
s 5.045714286 _2_ AGT  --- 92 cbr 512 [0 0 0 0] ------- [2:0 3:0 32 0] [5] 0 0
r 5.045714286 _2_ RTR  --- 92 cbr 512 [0 0 0 0] ------- [2:0 3:0 32 0] [5] 0 0
s 5.045714286 _9_ AGT  --- 94 cbr 512 [0 0 0 0] ------- [9:0 8:0 32 0] [5] 0 0
r 5.045714286 _9_ RTR  --- 94 cbr 512 [0 0 0 0] ------- [9:0 8:0 32 0] [5] 0 0
SFs 5.045714286 _9_ 94 [9 -> 8] 1(0) to 8 
s 5.045714286 _1_ RTR  --- 91 cbr 532 [0 0 0 0] ------- [1:0 13:0 32 13] [5] 0 0
s 5.045714286 _9_ RTR  --- 94 cbr 532 [0 0 0 0] ------- [9:0 8:0 32 8] [5] 0 0
r 5.046013480 _0_ RTR  --- 81 DSR 32 [0 ffffffff 2 800] ------- [2:255 3:255 32 0] 1 [1 2] [0 2 0 0->0] [0 0 0 0->0]
r 5.046013515 _3_ RTR  --- 81 DSR 32 [0 ffffffff 2 800] ------- [2:255 3:255 32 0] 1 [1 2] [0 2 0 0->0] [0 0 0 0->0]
r 5.046013545 _10_ RTR  --- 81 DSR 32 [0 ffffffff 2 800] ------- [2:255 3:255 32 0] 1 [1 2] [0 2 0 0->0] [0 0 0 0->0]
r 5.046013662 _11_ RTR  --- 81 DSR 32 [0 ffffffff 2 800] ------- [2:255 3:255 32 0] 1 [1 2] [0 2 0 0->0] [0 0 0 0->0]
s 5.046070923 _7_ RTR  --- 71 DSR 32 [0 0 0 0] ------- [7:255 11:255 32 0] 1 [1 2] [0 2 0 0->0] [0 0 0 0->0]
s 5.046201943 _1_ RTR  --- 79 DSR 32 [0 0 0 0] ------- [1:255 13:255 32 0] 1 [1 2] [0 2 0 0->0] [0 0 0 0->0]
r 5.046823966 _2_ RTR  --- 75 DSR 32 [0 ffffffff a 800] ------- [10:255 0:255 32 0] 1 [1 2] [0 2 0 0->0] [0 0 0 0->0]
r 5.046824114 _6_ RTR  --- 75 DSR 32 [0 ffffffff a 800] ------- [10:255 0:255 32 0] 1 [1 2] [0 2 0 0->0] [0 0 0 0->0]
r 5.046824169 _0_ RTR  --- 75 DSR 32 [0 ffffffff a 800] ------- [10:255 0:255 32 0] 1 [1 2] [0 2 0 0->0] [0 0 0 0->0]
r 5.046824170 _3_ RTR  --- 75 DSR 32 [0 ffffffff a 800] ------- [10:255 0:255 32 0] 1 [1 2] [0 2 0 0->0] [0 0 0 0->0]
r 5.046824229 _12_ RTR  --- 75 DSR 32 [0 ffffffff a 800] ------- [10:255 0:255 32 0] 1 [1 2] [0 2 0 0->0] [0 0 0 0->0]
r 5.046824335 _11_ RTR  --- 75 DSR 32 [0 ffffffff a 800] ------- [10:255 0:255 32 0] 1 [1 2] [0 2 0 0->0] [0 0 0 0->0]
r 5.047714262 _12_ RTR  --- 73 DSR 32 [0 ffffffff 6 800] ------- [6:255 5:255 32 0] 1 [1 2] [0 2 0 0->0] [0 0 0 0->0]
r 5.047714454 _1_ RTR  --- 73 DSR 32 [0 ffffffff 6 800] ------- [6:255 5:255 32 0] 1 [1 2] [0 2 0 0->0] [0 0 0 0->0]
r 5.047714552 _8_ RTR  --- 73 DSR 32 [0 ffffffff 6 800] ------- [6:255 5:255 32 0] 1 [1 2] [0 2 0 0->0] [0 0 0 0->0]
r 5.047714703 _13_ RTR  --- 73 DSR 32 [0 ffffffff 6 800] ------- [6:255 5:255 32 0] 1 [1 2] [0 2 0 0->0] [0 0 0 0->0]
f 5.047832282 _0_ RTR  --- 81 DSR 48 [0 ffffffff 2 800] ------- [2:255 3:255 32 0] 2 [1 2] [0 2 0 0->0] [0 0 0 0->0]
r 5.048889756 _5_ RTR  --- 71 DSR 32 [0 ffffffff 7 800] ------- [7:255 11:255 32 0] 1 [1 2] [0 2 0 0->0] [0 0 0 0->0]
r 5.048889817 _9_ RTR  --- 71 DSR 32 [0 ffffffff 7 800] ------- [7:255 11:255 32 0] 1 [1 2] [0 2 0 0->0] [0 0 0 0->0]
r 5.048889879 _8_ RTR  --- 71 DSR 32 [0 ffffffff 7 800] ------- [7:255 11:255 32 0] 1 [1 2] [0 2 0 0->0] [0 0 0 0->0]
s 5.049833359 _0_ RTR  --- 96 DSR 44 [0 0 0 0] ------- [0:255 10:255 254 10] 2 [0 2] [1 2 2 10->0] [0 0 0 0->0]
D 5.049833359 _0_ IFQ  ARP 17 DSR 44 [0 0 0 800] ------- [0:255 10:255 254 10] 2 [0 1] [1 1 2 10->0] [0 0 0 0->0]
f 5.049957339 _2_ RTR  --- 75 DSR 48 [0 ffffffff a 800] ------- [10:255 0:255 32 0] 2 [1 2] [0 2 0 0->0] [0 0 0 0->0]
r 5.050613552 _6_ RTR  --- 18 DSR 44 [13a 6 5 800] ------- [5:255 6:255 254 6] 2 [0 1] [1 1 2 6->5] [0 0 0 0->0]
SFESTs 5.050613552 _6_ 2 [6 -> 5] 1(1) to 5 [6 |5 ]
SFESTs 5.050613552 _6_ 21 [6 -> 5] 1(1) to 5 [6 |5 ]
SFESTs 5.050613552 _6_ 40 [6 -> 5] 1(1) to 5 [6 |5 ]
SFs 5.050613552 _6_ 59 [6 -> 5] 1(0) to 5 
SFs 5.050613552 _6_ 72 [6 -> 5] 1(0) to 5 
SFs 5.050613552 _6_ 85 [6 -> 5] 1(0) to 5 
s 5.050613552 _6_ RTR  --- 2 cbr 548 [0 0 0 0] ------- [6:0 5:0 32 5] [0] 0 0
f 5.051242660 _6_ RTR  --- 75 DSR 48 [0 ffffffff a 800] ------- [10:255 0:255 32 0] 2 [1 2] [0 2 0 0->0] [0 0 0 0->0]
f 5.051704068 _10_ RTR  --- 81 DSR 48 [0 ffffffff 2 800] ------- [2:255 3:255 32 0] 2 [1 2] [0 2 0 0->0] [0 0 0 0->0]
f 5.052398061 _1_ RTR  --- 73 DSR 48 [0 ffffffff 6 800] ------- [6:255 5:255 32 0] 2 [1 2] [0 2 0 0->0] [0 0 0 0->0]
f 5.052854230 _8_ RTR  --- 71 DSR 48 [0 ffffffff 7 800] ------- [7:255 11:255 32 0] 2 [1 2] [0 2 0 0->0] [0 0 0 0->0]
f 5.053307251 _11_ RTR  --- 81 DSR 48 [0 ffffffff 2 800] ------- [2:255 3:255 32 0] 2 [1 2] [0 2 0 0->0] [0 0 0 0->0]
s 5.054104974 _3_ RTR  --- 95 DSR 44 [0 0 0 0] ------- [3:255 2:255 254 2] 2 [0 2] [1 2 2 2->3] [0 0 0 0->0]
D 5.054104974 _3_ IFQ  ARP 35 DSR 44 [0 0 3 800] ------- [3:255 2:255 254 2] 2 [0 1] [1 1 2 2->3] [0 0 0 0->0]
f 5.054706464 _8_ RTR  --- 73 DSR 48 [0 ffffffff 6 800] ------- [6:255 5:255 32 0] 2 [1 2] [0 2 0 0->0] [0 0 0 0->0]
s 5.054857143 _7_ AGT  --- 109 cbr 512 [0 0 0 0] ------- [7:0 11:0 32 0] [6] 0 0
r 5.054857143 _7_ RTR  --- 109 cbr 512 [0 0 0 0] ------- [7:0 11:0 32 0] [6] 0 0
s 5.054857143 _6_ AGT  --- 111 cbr 512 [0 0 0 0] ------- [6:0 5:0 32 0] [6] 0 0
r 5.054857143 _6_ RTR  --- 111 cbr 512 [0 0 0 0] ------- [6:0 5:0 32 0] [6] 0 0
SFs 5.054857143 _6_ 111 [6 -> 5] 1(0) to 5 
s 5.054857143 _10_ AGT  --- 112 cbr 512 [0 0 0 0] ------- [10:0 0:0 32 0] [6] 0 0
r 5.054857143 _10_ RTR  --- 112 cbr 512 [0 0 0 0] ------- [10:0 0:0 32 0] [6] 0 0
s 5.054857143 _4_ AGT  --- 114 cbr 512 [0 0 0 0] ------- [4:0 12:0 32 0] [6] 0 0
r 5.054857143 _4_ RTR  --- 114 cbr 512 [0 0 0 0] ------- [4:0 12:0 32 0] [6] 0 0
s 5.054857143 _1_ AGT  --- 116 cbr 512 [0 0 0 0] ------- [1:0 13:0 32 0] [6] 0 0
r 5.054857143 _1_ RTR  --- 116 cbr 512 [0 0 0 0] ------- [1:0 13:0 32 0] [6] 0 0
SFs 5.054857143 _1_ 116 [1 -> 13] 1(0) to 13 
s 5.054857143 _2_ AGT  --- 117 cbr 512 [0 0 0 0] ------- [2:0 3:0 32 0] [6] 0 0
r 5.054857143 _2_ RTR  --- 117 cbr 512 [0 0 0 0] ------- [2:0 3:0 32 0] [6] 0 0
s 5.054857143 _9_ AGT  --- 119 cbr 512 [0 0 0 0] ------- [9:0 8:0 32 0] [6] 0 0
r 5.054857143 _9_ RTR  --- 119 cbr 512 [0 0 0 0] ------- [9:0 8:0 32 0] [6] 0 0
SFs 5.054857143 _9_ 119 [9 -> 8] 1(0) to 8 
s 5.054857143 _6_ RTR  --- 111 cbr 532 [0 0 0 0] ------- [6:0 5:0 32 5] [6] 0 0
s 5.054857143 _1_ RTR  --- 116 cbr 532 [0 0 0 0] ------- [1:0 13:0 32 13] [6] 0 0
s 5.054857143 _9_ RTR  --- 119 cbr 532 [0 0 0 0] ------- [9:0 8:0 32 8] [6] 0 0
f 5.055678851 _11_ RTR  --- 75 DSR 48 [0 ffffffff a 800] ------- [10:255 0:255 32 0] 2 [1 2] [0 2 0 0->0] [0 0 0 0->0]
f 5.056407763 _3_ RTR  --- 75 DSR 48 [0 ffffffff a 800] ------- [10:255 0:255 32 0] 2 [1 2] [0 2 0 0->0] [0 0 0 0->0]
r 5.056602984 _13_ RTR  --- 8 cbr 548 [13a d 1 800] ------- [1:0 13:0 32 13] [0] 1 0
r 5.056602984 _13_ AGT  --- 8 cbr 512 [13a d 1 800] ------- [1:0 13:0 32 13] [0] 1 0
f 5.056633972 _9_ RTR  --- 71 DSR 48 [0 ffffffff 7 800] ------- [7:255 11:255 32 0] 2 [1 2] [0 2 0 0->0] [0 0 0 0->0]
f 5.056747664 _12_ RTR  --- 75 DSR 48 [0 ffffffff a 800] ------- [10:255 0:255 32 0] 2 [1 2] [0 2 0 0->0] [0 0 0 0->0]
f 5.057068752 _13_ RTR  --- 73 DSR 48 [0 ffffffff 6 800] ------- [6:255 5:255 32 0] 2 [1 2] [0 2 0 0->0] [0 0 0 0->0]
f 5.057237277 _5_ RTR  --- 71 DSR 48 [0 ffffffff 7 800] ------- [7:255 11:255 32 0] 2 [1 2] [0 2 0 0->0] [0 0 0 0->0]
f 5.057701352 _12_ RTR  --- 73 DSR 48 [0 ffffffff 6 800] ------- [6:255 5:255 32 0] 2 [1 2] [0 2 0 0->0] [0 0 0 0->0]
r 5.057855571 _9_ RTR  --- 71 DSR 48 [0 ffffffff 8 800] ------- [7:255 11:255 32 0] 2 [1 2] [0 2 0 0->0] [0 0 0 0->0]
r 5.057855647 _5_ RTR  --- 71 DSR 48 [0 ffffffff 8 800] ------- [7:255 11:255 32 0] 2 [1 2] [0 2 0 0->0] [0 0 0 0->0]
r 5.057855659 _1_ RTR  --- 71 DSR 48 [0 ffffffff 8 800] ------- [7:255 11:255 32 0] 2 [1 2] [0 2 0 0->0] [0 0 0 0->0]
r 5.057855922 _6_ RTR  --- 71 DSR 48 [0 ffffffff 8 800] ------- [7:255 11:255 32 0] 2 [1 2] [0 2 0 0->0] [0 0 0 0->0]
r 5.057855947 _12_ RTR  --- 71 DSR 48 [0 ffffffff 8 800] ------- [7:255 11:255 32 0] 2 [1 2] [0 2 0 0->0] [0 0 0 0->0]
r 5.057855986 _13_ RTR  --- 71 DSR 48 [0 ffffffff 8 800] ------- [7:255 11:255 32 0] 2 [1 2] [0 2 0 0->0] [0 0 0 0->0]
r 5.057856082 _2_ RTR  --- 71 DSR 48 [0 ffffffff 8 800] ------- [7:255 11:255 32 0] 2 [1 2] [0 2 0 0->0] [0 0 0 0->0]
r 5.057856193 _7_ RTR  --- 71 DSR 48 [0 ffffffff 8 800] ------- [7:255 11:255 32 0] 2 [1 2] [0 2 0 0->0] [0 0 0 0->0]
f 5.057997304 _2_ RTR  --- 71 DSR 68 [0 ffffffff 8 800] ------- [7:255 11:255 32 0] 3 [1 2] [0 2 0 0->0] [0 0 0 0->0]
f 5.058626953 _6_ RTR  --- 71 DSR 68 [0 ffffffff 8 800] ------- [7:255 11:255 32 0] 3 [1 2] [0 2 0 0->0] [0 0 0 0->0]
r 5.063489829 _8_ RTR  --- 31 cbr 548 [13a 8 9 800] ------- [9:0 8:0 32 8] [1] 1 0
r 5.063489829 _8_ AGT  --- 31 cbr 512 [13a 8 9 800] ------- [9:0 8:0 32 8] [1] 1 0
s 5.064000000 _7_ AGT  --- 120 cbr 512 [0 0 0 0] ------- [7:0 11:0 32 0] [7] 0 0
r 5.064000000 _7_ RTR  --- 120 cbr 512 [0 0 0 0] ------- [7:0 11:0 32 0] [7] 0 0
s 5.064000000 _6_ AGT  --- 122 cbr 512 [0 0 0 0] ------- [6:0 5:0 32 0] [7] 0 0
r 5.064000000 _6_ RTR  --- 122 cbr 512 [0 0 0 0] ------- [6:0 5:0 32 0] [7] 0 0
SFs 5.064000000 _6_ 122 [6 -> 5] 1(0) to 5 
s 5.064000000 _10_ AGT  --- 123 cbr 512 [0 0 0 0] ------- [10:0 0:0 32 0] [7] 0 0
r 5.064000000 _10_ RTR  --- 123 cbr 512 [0 0 0 0] ------- [10:0 0:0 32 0] [7] 0 0
s 5.064000000 _4_ AGT  --- 125 cbr 512 [0 0 0 0] ------- [4:0 12:0 32 0] [7] 0 0
r 5.064000000 _4_ RTR  --- 125 cbr 512 [0 0 0 0] ------- [4:0 12:0 32 0] [7] 0 0
s 5.064000000 _1_ AGT  --- 127 cbr 512 [0 0 0 0] ------- [1:0 13:0 32 0] [7] 0 0
r 5.064000000 _1_ RTR  --- 127 cbr 512 [0 0 0 0] ------- [1:0 13:0 32 0] [7] 0 0
SFs 5.064000000 _1_ 127 [1 -> 13] 1(0) to 13 
s 5.064000000 _2_ AGT  --- 128 cbr 512 [0 0 0 0] ------- [2:0 3:0 32 0] [7] 0 0
r 5.064000000 _2_ RTR  --- 128 cbr 512 [0 0 0 0] ------- [2:0 3:0 32 0] [7] 0 0
s 5.064000000 _9_ AGT  --- 130 cbr 512 [0 0 0 0] ------- [9:0 8:0 32 0] [7] 0 0
r 5.064000000 _9_ RTR  --- 130 cbr 512 [0 0 0 0] ------- [9:0 8:0 32 0] [7] 0 0
SFs 5.064000000 _9_ 130 [9 -> 8] 1(0) to 8 
s 5.064000000 _6_ RTR  --- 122 cbr 532 [0 0 0 0] ------- [6:0 5:0 32 5] [7] 0 0
s 5.064000000 _1_ RTR  --- 127 cbr 532 [0 0 0 0] ------- [1:0 13:0 32 13] [7] 0 0
s 5.064000000 _9_ RTR  --- 130 cbr 532 [0 0 0 0] ------- [9:0 8:0 32 8] [7] 0 0
r 5.064742694 _1_ RTR  --- 73 DSR 48 [0 ffffffff d 800] ------- [6:255 5:255 32 0] 2 [1 2] [0 2 0 0->0] [0 0 0 0->0]
r 5.064742803 _12_ RTR  --- 73 DSR 48 [0 ffffffff d 800] ------- [6:255 5:255 32 0] 2 [1 2] [0 2 0 0->0] [0 0 0 0->0]
r 5.064742830 _8_ RTR  --- 73 DSR 48 [0 ffffffff d 800] ------- [6:255 5:255 32 0] 2 [1 2] [0 2 0 0->0] [0 0 0 0->0]
r 5.064742863 _9_ RTR  --- 73 DSR 48 [0 ffffffff d 800] ------- [6:255 5:255 32 0] 2 [1 2] [0 2 0 0->0] [0 0 0 0->0]
s 5.064742863 _9_ RTR  --- 131 DSR 56 [0 0 0 0] ------- [9:255 6:255 255 13] 3 [0 2] [1 2 4 6->5] [0 0 0 0->0]
r 5.064742912 _5_ RTR  --- 73 DSR 48 [0 ffffffff d 800] ------- [6:255 5:255 32 0] 2 [1 2] [0 2 0 0->0] [0 0 0 0->0]
r 5.064742918 _6_ RTR  --- 73 DSR 48 [0 ffffffff d 800] ------- [6:255 5:255 32 0] 2 [1 2] [0 2 0 0->0] [0 0 0 0->0]
r 5.065660940 _5_ RTR  --- 71 DSR 48 [0 ffffffff 9 800] ------- [7:255 11:255 32 0] 2 [1 2] [0 2 0 0->0] [0 0 0 0->0]
r 5.065660948 _8_ RTR  --- 71 DSR 48 [0 ffffffff 9 800] ------- [7:255 11:255 32 0] 2 [1 2] [0 2 0 0->0] [0 0 0 0->0]
r 5.065661109 _1_ RTR  --- 71 DSR 48 [0 ffffffff 9 800] ------- [7:255 11:255 32 0] 2 [1 2] [0 2 0 0->0] [0 0 0 0->0]
r 5.065661385 _6_ RTR  --- 71 DSR 48 [0 ffffffff 9 800] ------- [7:255 11:255 32 0] 2 [1 2] [0 2 0 0->0] [0 0 0 0->0]
r 5.065661395 _13_ RTR  --- 71 DSR 48 [0 ffffffff 9 800] ------- [7:255 11:255 32 0] 2 [1 2] [0 2 0 0->0] [0 0 0 0->0]
r 5.065661408 _12_ RTR  --- 71 DSR 48 [0 ffffffff 9 800] ------- [7:255 11:255 32 0] 2 [1 2] [0 2 0 0->0] [0 0 0 0->0]
r 5.065661508 _7_ RTR  --- 71 DSR 48 [0 ffffffff 9 800] ------- [7:255 11:255 32 0] 2 [1 2] [0 2 0 0->0] [0 0 0 0->0]
r 5.065661516 _2_ RTR  --- 71 DSR 48 [0 ffffffff 9 800] ------- [7:255 11:255 32 0] 2 [1 2] [0 2 0 0->0] [0 0 0 0->0]
f 5.066352105 _13_ RTR  --- 71 DSR 68 [0 ffffffff 8 800] ------- [7:255 11:255 32 0] 3 [1 2] [0 2 0 0->0] [0 0 0 0->0]
f 5.066538576 _1_ RTR  --- 71 DSR 68 [0 ffffffff 8 800] ------- [7:255 11:255 32 0] 3 [1 2] [0 2 0 0->0] [0 0 0 0->0]
r 5.066639017 _9_ RTR  --- 71 DSR 48 [0 ffffffff 5 800] ------- [7:255 11:255 32 0] 2 [1 2] [0 2 0 0->0] [0 0 0 0->0]
r 5.066639102 _8_ RTR  --- 71 DSR 48 [0 ffffffff 5 800] ------- [7:255 11:255 32 0] 2 [1 2] [0 2 0 0->0] [0 0 0 0->0]
r 5.066639260 _1_ RTR  --- 71 DSR 48 [0 ffffffff 5 800] ------- [7:255 11:255 32 0] 2 [1 2] [0 2 0 0->0] [0 0 0 0->0]
r 5.066639522 _13_ RTR  --- 71 DSR 48 [0 ffffffff 5 800] ------- [7:255 11:255 32 0] 2 [1 2] [0 2 0 0->0] [0 0 0 0->0]
r 5.066639524 _7_ RTR  --- 71 DSR 48 [0 ffffffff 5 800] ------- [7:255 11:255 32 0] 2 [1 2] [0 2 0 0->0] [0 0 0 0->0]
r 5.066639537 _6_ RTR  --- 71 DSR 48 [0 ffffffff 5 800] ------- [7:255 11:255 32 0] 2 [1 2] [0 2 0 0->0] [0 0 0 0->0]
r 5.066639562 _12_ RTR  --- 71 DSR 48 [0 ffffffff 5 800] ------- [7:255 11:255 32 0] 2 [1 2] [0 2 0 0->0] [0 0 0 0->0]
r 5.066639638 _2_ RTR  --- 71 DSR 48 [0 ffffffff 5 800] ------- [7:255 11:255 32 0] 2 [1 2] [0 2 0 0->0] [0 0 0 0->0]
f 5.067181324 _12_ RTR  --- 71 DSR 68 [0 ffffffff 8 800] ------- [7:255 11:255 32 0] 3 [1 2] [0 2 0 0->0] [0 0 0 0->0]
r 5.067737886 _1_ RTR  --- 71 DSR 68 [0 ffffffff d 800] ------- [7:255 11:255 32 0] 3 [1 2] [0 2 0 0->0] [0 0 0 0->0]