Sconfig 0.00000 tap: on snoop: rts? on errs? on
Sconfig 0.00000 salvage: on !bd replies? on
Sconfig 0.00000 grat error: on grat reply: on
Sconfig 0.00000 $reply for props: on ring 0 search: on
Sconfig 0.00000 using MOBICACHE
M 5.00000 0 (277.00, 495.00, 0.00), (207.00, 251.00), 2.00
M 5.00000 1 (446.00, 77.00, 0.00), (469.00, 356.00), 2.00
M 5.00000 2 (285.00, 297.00, 0.00), (149.00, 195.00), 2.00
M 5.00000 3 (126.00, 300.00, 0.00), (316.00, 27.00), 2.00
M 5.00000 4 (251.00, 296.00, 0.00), (66.00, 276.00), 2.00
M 5.00000 5 (104.00, 426.00, 0.00), (358.00, 334.00), 2.00
M 5.00000 6 (455.00, 123.00, 0.00), (60.00, 388.00), 2.00
M 5.00000 7 (226.00, 488.00, 0.00), (331.00, 201.00), 2.00
M 5.00000 8 (350.00, 335.00, 0.00), (203.00, 410.00), 2.00
M 5.00000 9 (239.00, 46.00, 0.00), (473.00, 393.00), 2.00
M 5.00000 10 (201.00, 113.00, 0.00), (359.00, 475.00), 2.00
M 5.00000 11 (162.00, 180.00, 0.00), (47.00, 179.00), 2.00
M 5.00000 12 (143.00, 441.00, 0.00), (315.00, 278.00), 2.00
M 5.00000 13 (214.00, 295.00, 0.00), (391.00, 408.00), 2.00
s 5.000000000 _8_ AGT  --- 0 cbr 512 [0 0 0 0] ------- [8:0 2:0 32 0] [0] 0 0
r 5.000000000 _8_ RTR  --- 0 cbr 512 [0 0 0 0] ------- [8:0 2:0 32 0] [0] 0 0
s 5.000000000 _7_ AGT  --- 2 cbr 512 [0 0 0 0] ------- [7:0 4:0 32 0] [0] 0 0
r 5.000000000 _7_ RTR  --- 2 cbr 512 [0 0 0 0] ------- [7:0 4:0 32 0] [0] 0 0
s 5.000000000 _9_ AGT  --- 4 cbr 512 [0 0 0 0] ------- [9:0 12:0 32 0] [0] 0 0
r 5.000000000 _9_ RTR  --- 4 cbr 512 [0 0 0 0] ------- [9:0 12:0 32 0] [0] 0 0
s 5.000000000 _6_ AGT  --- 6 cbr 512 [0 0 0 0] ------- [6:0 10:0 32 0] [0] 0 0
r 5.000000000 _6_ RTR  --- 6 cbr 512 [0 0 0 0] ------- [6:0 10:0 32 0] [0] 0 0
s 5.000000000 _5_ AGT  --- 8 cbr 512 [0 0 0 0] ------- [5:0 11:0 32 0] [0] 0 0
r 5.000000000 _5_ RTR  --- 8 cbr 512 [0 0 0 0] ------- [5:0 11:0 32 0] [0] 0 0
s 5.000000000 _0_ AGT  --- 10 cbr 512 [0 0 0 0] ------- [0:0 13:0 32 0] [0] 0 0
r 5.000000000 _0_ RTR  --- 10 cbr 512 [0 0 0 0] ------- [0:0 13:0 32 0] [0] 0 0
s 5.000000000 _1_ AGT  --- 12 cbr 512 [0 0 0 0] ------- [1:0 3:0 32 0] [0] 0 0
r 5.000000000 _1_ RTR  --- 12 cbr 512 [0 0 0 0] ------- [1:0 3:0 32 0] [0] 0 0
s 5.001020609 _1_ RTR  --- 13 DSR 32 [0 0 0 0] ------- [1:255 3:255 32 0] 1 [1 1] [0 1 0 0->0] [0 0 0 0->0]
s 5.001062646 _6_ RTR  --- 7 DSR 32 [0 0 0 0] ------- [6:255 10:255 32 0] 1 [1 1] [0 1 0 0->0] [0 0 0 0->0]
r 5.001900765 _6_ RTR  --- 13 DSR 32 [0 ffffffff 1 800] ------- [1:255 3:255 32 0] 1 [1 1] [0 1 0 0->0] [0 0 0 0->0]
r 5.001901307 _9_ RTR  --- 13 DSR 32 [0 ffffffff 1 800] ------- [1:255 3:255 32 0] 1 [1 1] [0 1 0 0->0] [0 0 0 0->0]
r 5.001901434 _10_ RTR  --- 13 DSR 32 [0 ffffffff 1 800] ------- [1:255 3:255 32 0] 1 [1 1] [0 1 0 0->0] [0 0 0 0->0]
s 5.002356581 _9_ RTR  --- 5 DSR 32 [0 0 0 0] ------- [9:255 12:255 32 0] 1 [1 1] [0 1 0 0->0] [0 0 0 0->0]
s 5.002771051 _8_ RTR  --- 1 DSR 32 [0 0 0 0] ------- [8:255 2:255 32 0] 1 [1 1] [0 1 0 0->0] [0 0 0 0->0]
r 5.002990922 _1_ RTR  --- 7 DSR 32 [0 ffffffff 6 800] ------- [6:255 10:255 32 0] 1 [1 1] [0 1 0 0->0] [0 0 0 0->0]
r 5.002991530 _9_ RTR  --- 7 DSR 32 [0 ffffffff 6 800] ------- [6:255 10:255 32 0] 1 [1 1] [0 1 0 0->0] [0 0 0 0->0]
r 5.002991554 _8_ RTR  --- 7 DSR 32 [0 ffffffff 6 800] ------- [6:255 10:255 32 0] 1 [1 1] [0 1 0 0->0] [0 0 0 0->0]
r 5.002991576 _2_ RTR  --- 7 DSR 32 [0 ffffffff 6 800] ------- [6:255 10:255 32 0] 1 [1 1] [0 1 0 0->0] [0 0 0 0->0]
s 5.003775053 _5_ RTR  --- 9 DSR 32 [0 0 0 0] ------- [5:255 11:255 32 0] 1 [1 1] [0 1 0 0->0] [0 0 0 0->0]
r 5.004041786 _10_ RTR  --- 5 DSR 32 [0 ffffffff 9 800] ------- [9:255 12:255 32 0] 1 [1 1] [0 1 0 0->0] [0 0 0 0->0]
r 5.004042045 _11_ RTR  --- 5 DSR 32 [0 ffffffff 9 800] ------- [9:255 12:255 32 0] 1 [1 1] [0 1 0 0->0] [0 0 0 0->0]
r 5.004042227 _1_ RTR  --- 5 DSR 32 [0 ffffffff 9 800] ------- [9:255 12:255 32 0] 1 [1 1] [0 1 0 0->0] [0 0 0 0->0]
r 5.004042294 _6_ RTR  --- 5 DSR 32 [0 ffffffff 9 800] ------- [9:255 12:255 32 0] 1 [1 1] [0 1 0 0->0] [0 0 0 0->0]
r 5.005336813 _2_ RTR  --- 1 DSR 32 [0 ffffffff 8 800] ------- [8:255 2:255 32 0] 1 [1 1] [0 1 0 0->0] [0 0 0 0->0]
r 5.005336916 _4_ RTR  --- 1 DSR 32 [0 ffffffff 8 800] ------- [8:255 2:255 32 0] 1 [1 1] [0 1 0 0->0] [0 0 0 0->0]
r 5.005337034 _13_ RTR  --- 1 DSR 32 [0 ffffffff 8 800] ------- [8:255 2:255 32 0] 1 [1 1] [0 1 0 0->0] [0 0 0 0->0]
r 5.005337148 _0_ RTR  --- 1 DSR 32 [0 ffffffff 8 800] ------- [8:255 2:255 32 0] 1 [1 1] [0 1 0 0->0] [0 0 0 0->0]
r 5.005337218 _7_ RTR  --- 1 DSR 32 [0 ffffffff 8 800] ------- [8:255 2:255 32 0] 1 [1 1] [0 1 0 0->0] [0 0 0 0->0]
r 5.005337317 _3_ RTR  --- 1 DSR 32 [0 ffffffff 8 800] ------- [8:255 2:255 32 0] 1 [1 1] [0 1 0 0->0] [0 0 0 0->0]
r 5.005337337 _12_ RTR  --- 1 DSR 32 [0 ffffffff 8 800] ------- [8:255 2:255 32 0] 1 [1 1] [0 1 0 0->0] [0 0 0 0->0]
r 5.005337350 _6_ RTR  --- 1 DSR 32 [0 ffffffff 8 800] ------- [8:255 2:255 32 0] 1 [1 1] [0 1 0 0->0] [0 0 0 0->0]
r 5.005337374 _11_ RTR  --- 1 DSR 32 [0 ffffffff 8 800] ------- [8:255 2:255 32 0] 1 [1 1] [0 1 0 0->0] [0 0 0 0->0]
s 5.006244338 _7_ RTR  --- 3 DSR 32 [0 0 0 0] ------- [7:255 4:255 32 0] 1 [1 1] [0 1 0 0->0] [0 0 0 0->0]
r 5.006851575 _12_ RTR  --- 9 DSR 32 [0 ffffffff 5 800] ------- [5:255 11:255 32 0] 1 [1 1] [0 1 0 0->0] [0 0 0 0->0]
r 5.006851862 _3_ RTR  --- 9 DSR 32 [0 ffffffff 5 800] ------- [5:255 11:255 32 0] 1 [1 1] [0 1 0 0->0] [0 0 0 0->0]
r 5.006851892 _7_ RTR  --- 9 DSR 32 [0 ffffffff 5 800] ------- [5:255 11:255 32 0] 1 [1 1] [0 1 0 0->0] [0 0 0 0->0]
r 5.006852006 _13_ RTR  --- 9 DSR 32 [0 ffffffff 5 800] ------- [5:255 11:255 32 0] 1 [1 1] [0 1 0 0->0] [0 0 0 0->0]
r 5.006852057 _0_ RTR  --- 9 DSR 32 [0 ffffffff 5 800] ------- [5:255 11:255 32 0] 1 [1 1] [0 1 0 0->0] [0 0 0 0->0]
r 5.006852090 _4_ RTR  --- 9 DSR 32 [0 ffffffff 5 800] ------- [5:255 11:255 32 0] 1 [1 1] [0 1 0 0->0] [0 0 0 0->0]
r 5.006852177 _2_ RTR  --- 9 DSR 32 [0 ffffffff 5 800] ------- [5:255 11:255 32 0] 1 [1 1] [0 1 0 0->0] [0 0 0 0->0]
r 5.007662064 _0_ RTR  --- 3 DSR 32 [0 ffffffff 7 800] ------- [7:255 4:255 32 0] 1 [1 1] [0 1 0 0->0] [0 0 0 0->0]
r 5.007662210 _12_ RTR  --- 3 DSR 32 [0 ffffffff 7 800] ------- [7:255 4:255 32 0] 1 [1 1] [0 1 0 0->0] [0 0 0 0->0]
r 5.007662348 _5_ RTR  --- 3 DSR 32 [0 ffffffff 7 800] ------- [7:255 4:255 32 0] 1 [1 1] [0 1 0 0->0] [0 0 0 0->0]
r 5.007662536 _13_ RTR  --- 3 DSR 32 [0 ffffffff 7 800] ------- [7:255 4:255 32 0] 1 [1 1] [0 1 0 0->0] [0 0 0 0->0]
r 5.007662537 _4_ RTR  --- 3 DSR 32 [0 ffffffff 7 800] ------- [7:255 4:255 32 0] 1 [1 1] [0 1 0 0->0] [0 0 0 0->0]
r 5.007662548 _8_ RTR  --- 3 DSR 32 [0 ffffffff 7 800] ------- [7:255 4:255 32 0] 1 [1 1] [0 1 0 0->0] [0 0 0 0->0]
r 5.007662558 _2_ RTR  --- 3 DSR 32 [0 ffffffff 7 800] ------- [7:255 4:255 32 0] 1 [1 1] [0 1 0 0->0] [0 0 0 0->0]
r 5.007662602 _3_ RTR  --- 3 DSR 32 [0 ffffffff 7 800] ------- [7:255 4:255 32 0] 1 [1 1] [0 1 0 0->0] [0 0 0 0->0]
s 5.008415362 _2_ RTR  --- 15 DSR 44 [0 0 0 0] ------- [2:255 8:255 254 8] 2 [0 1] [1 1 2 8->2] [0 0 0 0->0]
s 5.009142857 _8_ AGT  --- 17 cbr 512 [0 0 0 0] ------- [8:0 2:0 32 0] [1] 0 0
r 5.009142857 _8_ RTR  --- 17 cbr 512 [0 0 0 0] ------- [8:0 2:0 32 0] [1] 0 0
s 5.009142857 _7_ AGT  --- 19 cbr 512 [0 0 0 0] ------- [7:0 4:0 32 0] [1] 0 0
r 5.009142857 _7_ RTR  --- 19 cbr 512 [0 0 0 0] ------- [7:0 4:0 32 0] [1] 0 0
s 5.009142857 _9_ AGT  --- 21 cbr 512 [0 0 0 0] ------- [9:0 12:0 32 0] [1] 0 0
r 5.009142857 _9_ RTR  --- 21 cbr 512 [0 0 0 0] ------- [9:0 12:0 32 0] [1] 0 0
s 5.009142857 _6_ AGT  --- 23 cbr 512 [0 0 0 0] ------- [6:0 10:0 32 0] [1] 0 0
r 5.009142857 _6_ RTR  --- 23 cbr 512 [0 0 0 0] ------- [6:0 10:0 32 0] [1] 0 0
s 5.009142857 _5_ AGT  --- 25 cbr 512 [0 0 0 0] ------- [5:0 11:0 32 0] [1] 0 0
r 5.009142857 _5_ RTR  --- 25 cbr 512 [0 0 0 0] ------- [5:0 11:0 32 0] [1] 0 0
s 5.009142857 _0_ AGT  --- 27 cbr 512 [0 0 0 0] ------- [0:0 13:0 32 0] [1] 0 0
r 5.009142857 _0_ RTR  --- 27 cbr 512 [0 0 0 0] ------- [0:0 13:0 32 0] [1] 0 0
s 5.009142857 _1_ AGT  --- 29 cbr 512 [0 0 0 0] ------- [1:0 3:0 32 0] [1] 0 0
r 5.009142857 _1_ RTR  --- 29 cbr 512 [0 0 0 0] ------- [1:0 3:0 32 0] [1] 0 0
s 5.009292293 _0_ RTR  --- 11 DSR 32 [0 0 0 0] ------- [0:255 13:255 32 0] 1 [1 1] [0 1 0 0->0] [0 0 0 0->0]
s 5.011978619 _4_ RTR  --- 16 DSR 44 [0 0 0 0] ------- [4:255 7:255 254 7] 2 [0 1] [1 1 2 7->4] [0 0 0 0->0]
r 5.012668198 _7_ RTR  --- 11 DSR 32 [0 ffffffff 0 800] ------- [0:255 13:255 32 0] 1 [1 1] [0 1 0 0->0] [0 0 0 0->0]
r 5.012668508 _12_ RTR  --- 11 DSR 32 [0 ffffffff 0 800] ------- [0:255 13:255 32 0] 1 [1 1] [0 1 0 0->0] [0 0 0 0->0]
r 5.012668613 _8_ RTR  --- 11 DSR 32 [0 ffffffff 0 800] ------- [0:255 13:255 32 0] 1 [1 1] [0 1 0 0->0] [0 0 0 0->0]
r 5.012668647 _5_ RTR  --- 11 DSR 32 [0 ffffffff 0 800] ------- [0:255 13:255 32 0] 1 [1 1] [0 1 0 0->0] [0 0 0 0->0]
r 5.012668687 _2_ RTR  --- 11 DSR 32 [0 ffffffff 0 800] ------- [0:255 13:255 32 0] 1 [1 1] [0 1 0 0->0] [0 0 0 0->0]
r 5.012668696 _4_ RTR  --- 11 DSR 32 [0 ffffffff 0 800] ------- [0:255 13:255 32 0] 1 [1 1] [0 1 0 0->0] [0 0 0 0->0]
r 5.012668725 _13_ RTR  --- 11 DSR 32 [0 ffffffff 0 800] ------- [0:255 13:255 32 0] 1 [1 1] [0 1 0 0->0] [0 0 0 0->0]
r 5.012668849 _3_ RTR  --- 11 DSR 32 [0 ffffffff 0 800] ------- [0:255 13:255 32 0] 1 [1 1] [0 1 0 0->0] [0 0 0 0->0]
s 5.013401649 _13_ RTR  --- 33 DSR 44 [0 0 0 0] ------- [13:255 0:255 254 0] 2 [0 1] [1 1 2 0->13] [0 0 0 0->0]
r 5.014311440 _8_ RTR  --- 15 DSR 44 [13a 8 2 800] ------- [2:255 8:255 254 8] 2 [0 1] [1 1 2 8->2] [0 0 0 0->0]
SFESTs 5.014311440 _8_ 0 [8 -> 2] 1(1) to 2 [8 |2 ]
SFESTs 5.014311440 _8_ 17 [8 -> 2] 1(1) to 2 [8 |2 ]
s 5.014311440 _8_ RTR  --- 0 cbr 548 [0 0 0 0] ------- [8:0 2:0 32 2] [0] 0 0
s 5.018285714 _8_ AGT  --- 36 cbr 512 [0 0 0 0] ------- [8:0 2:0 32 0] [2] 0 0
r 5.018285714 _8_ RTR  --- 36 cbr 512 [0 0 0 0] ------- [8:0 2:0 32 0] [2] 0 0
SFESTs 5.018285714 _8_ 36 [8 -> 2] 1(1) to 2 [8 |2 ]
s 5.018285714 _7_ AGT  --- 37 cbr 512 [0 0 0 0] ------- [7:0 4:0 32 0] [2] 0 0
r 5.018285714 _7_ RTR  --- 37 cbr 512 [0 0 0 0] ------- [7:0 4:0 32 0] [2] 0 0
s 5.018285714 _9_ AGT  --- 39 cbr 512 [0 0 0 0] ------- [9:0 12:0 32 0] [2] 0 0
r 5.018285714 _9_ RTR  --- 39 cbr 512 [0 0 0 0] ------- [9:0 12:0 32 0] [2] 0 0
s 5.018285714 _6_ AGT  --- 41 cbr 512 [0 0 0 0] ------- [6:0 10:0 32 0] [2] 0 0
r 5.018285714 _6_ RTR  --- 41 cbr 512 [0 0 0 0] ------- [6:0 10:0 32 0] [2] 0 0
s 5.018285714 _5_ AGT  --- 43 cbr 512 [0 0 0 0] ------- [5:0 11:0 32 0] [2] 0 0
r 5.018285714 _5_ RTR  --- 43 cbr 512 [0 0 0 0] ------- [5:0 11:0 32 0] [2] 0 0
s 5.018285714 _0_ AGT  --- 45 cbr 512 [0 0 0 0] ------- [0:0 13:0 32 0] [2] 0 0
r 5.018285714 _0_ RTR  --- 45 cbr 512 [0 0 0 0] ------- [0:0 13:0 32 0] [2] 0 0
s 5.018285714 _1_ AGT  --- 47 cbr 512 [0 0 0 0] ------- [1:0 3:0 32 0] [2] 0 0
r 5.018285714 _1_ RTR  --- 47 cbr 512 [0 0 0 0] ------- [1:0 3:0 32 0] [2] 0 0
s 5.018285714 _8_ RTR  --- 36 cbr 548 [0 0 0 0] ------- [8:0 2:0 32 2] [2] 0 0
r 5.021763138 _2_ RTR  --- 0 cbr 548 [13a 2 8 800] ------- [8:0 2:0 32 2] [0] 1 0
r 5.021763138 _2_ AGT  --- 0 cbr 512 [13a 2 8 800] ------- [8:0 2:0 32 2] [0] 1 0
s 5.027428571 _8_ AGT  --- 52 cbr 512 [0 0 0 0] ------- [8:0 2:0 32 0] [3] 0 0
r 5.027428571 _8_ RTR  --- 52 cbr 512 [0 0 0 0] ------- [8:0 2:0 32 0] [3] 0 0
SFs 5.027428571 _8_ 52 [8 -> 2] 1(0) to 2 
s 5.027428571 _7_ AGT  --- 53 cbr 512 [0 0 0 0] ------- [7:0 4:0 32 0] [3] 0 0
r 5.027428571 _7_ RTR  --- 53 cbr 512 [0 0 0 0] ------- [7:0 4:0 32 0] [3] 0 0
s 5.027428571 _9_ AGT  --- 55 cbr 512 [0 0 0 0] ------- [9:0 12:0 32 0] [3] 0 0
r 5.027428571 _9_ RTR  --- 55 cbr 512 [0 0 0 0] ------- [9:0 12:0 32 0] [3] 0 0
s 5.027428571 _6_ AGT  --- 57 cbr 512 [0 0 0 0] ------- [6:0 10:0 32 0] [3] 0 0
r 5.027428571 _6_ RTR  --- 57 cbr 512 [0 0 0 0] ------- [6:0 10:0 32 0] [3] 0 0
s 5.027428571 _5_ AGT  --- 59 cbr 512 [0 0 0 0] ------- [5:0 11:0 32 0] [3] 0 0
r 5.027428571 _5_ RTR  --- 59 cbr 512 [0 0 0 0] ------- [5:0 11:0 32 0] [3] 0 0
s 5.027428571 _0_ AGT  --- 61 cbr 512 [0 0 0 0] ------- [0:0 13:0 32 0] [3] 0 0
r 5.027428571 _0_ RTR  --- 61 cbr 512 [0 0 0 0] ------- [0:0 13:0 32 0] [3] 0 0
s 5.027428571 _1_ AGT  --- 63 cbr 512 [0 0 0 0] ------- [1:0 3:0 32 0] [3] 0 0
r 5.027428571 _1_ RTR  --- 63 cbr 512 [0 0 0 0] ------- [1:0 3:0 32 0] [3] 0 0
s 5.027428571 _8_ RTR  --- 52 cbr 532 [0 0 0 0] ------- [8:0 2:0 32 2] [3] 0 0
r 5.028092142 _2_ RTR  --- 36 cbr 548 [13a 2 8 800] ------- [8:0 2:0 32 2] [2] 1 0
r 5.028092142 _2_ AGT  --- 36 cbr 512 [13a 2 8 800] ------- [8:0 2:0 32 2] [2] 1 0
r 5.034213146 _2_ RTR  --- 52 cbr 532 [13a 2 8 800] ------- [8:0 2:0 32 2] [3] 1 0
r 5.034213146 _2_ AGT  --- 52 cbr 512 [13a 2 8 800] ------- [8:0 2:0 32 2] [3] 1 0
s 5.036571429 _8_ AGT  --- 65 cbr 512 [0 0 0 0] ------- [8:0 2:0 32 0] [4] 0 0
r 5.036571429 _8_ RTR  --- 65 cbr 512 [0 0 0 0] ------- [8:0 2:0 32 0] [4] 0 0
SFs 5.036571429 _8_ 65 [8 -> 2] 1(0) to 2 
s 5.036571429 _7_ AGT  --- 66 cbr 512 [0 0 0 0] ------- [7:0 4:0 32 0] [4] 0 0
r 5.036571429 _7_ RTR  --- 66 cbr 512 [0 0 0 0] ------- [7:0 4:0 32 0] [4] 0 0
s 5.036571429 _9_ AGT  --- 68 cbr 512 [0 0 0 0] ------- [9:0 12:0 32 0] [4] 0 0
r 5.036571429 _9_ RTR  --- 68 cbr 512 [0 0 0 0] ------- [9:0 12:0 32 0] [4] 0 0
s 5.036571429 _6_ AGT  --- 70 cbr 512 [0 0 0 0] ------- [6:0 10:0 32 0] [4] 0 0
r 5.036571429 _6_ RTR  --- 70 cbr 512 [0 0 0 0] ------- [6:0 10:0 32 0] [4] 0 0
s 5.036571429 _5_ AGT  --- 72 cbr 512 [0 0 0 0] ------- [5:0 11:0 32 0] [4] 0 0
r 5.036571429 _5_ RTR  --- 72 cbr 512 [0 0 0 0] ------- [5:0 11:0 32 0] [4] 0 0
s 5.036571429 _0_ AGT  --- 74 cbr 512 [0 0 0 0] ------- [0:0 13:0 32 0] [4] 0 0
r 5.036571429 _0_ RTR  --- 74 cbr 512 [0 0 0 0] ------- [0:0 13:0 32 0] [4] 0 0
s 5.036571429 _1_ AGT  --- 76 cbr 512 [0 0 0 0] ------- [1:0 3:0 32 0] [4] 0 0
r 5.036571429 _1_ RTR  --- 76 cbr 512 [0 0 0 0] ------- [1:0 3:0 32 0] [4] 0 0
s 5.036571429 _8_ RTR  --- 65 cbr 532 [0 0 0 0] ------- [8:0 2:0 32 2] [4] 0 0
s 5.036607868 _7_ RTR  --- 67 DSR 32 [0 0 0 0] ------- [7:255 4:255 32 0] 1 [1 2] [0 2 0 0->0] [0 0 0 0->0]
s 5.037682045 _6_ RTR  --- 71 DSR 32 [0 0 0 0] ------- [6:255 10:255 32 0] 1 [1 2] [0 2 0 0->0] [0 0 0 0->0]
s 5.037689574 _1_ RTR  --- 77 DSR 32 [0 0 0 0] ------- [1:255 3:255 32 0] 1 [1 2] [0 2 0 0->0] [0 0 0 0->0]
s 5.038359374 _0_ RTR  --- 75 DSR 32 [0 0 0 0] ------- [0:255 13:255 32 0] 1 [1 2] [0 2 0 0->0] [0 0 0 0->0]
s 5.041015284 _9_ RTR  --- 69 DSR 32 [0 0 0 0] ------- [9:255 12:255 32 0] 1 [1 2] [0 2 0 0->0] [0 0 0 0->0]
r 5.042228182 _2_ RTR  --- 65 cbr 532 [13a 2 8 800] ------- [8:0 2:0 32 2] [4] 1 0
r 5.042228182 _2_ AGT  --- 65 cbr 512 [13a 2 8 800] ------- [8:0 2:0 32 2] [4] 1 0
r 5.043393014 _7_ RTR  --- 75 DSR 32 [0 ffffffff 0 800] ------- [0:255 13:255 32 0] 1 [1 2] [0 2 0 0->0] [0 0 0 0->0]
r 5.043393324 _12_ RTR  --- 75 DSR 32 [0 ffffffff 0 800] ------- [0:255 13:255 32 0] 1 [1 2] [0 2 0 0->0] [0 0 0 0->0]
r 5.043393428 _8_ RTR  --- 75 DSR 32 [0 ffffffff 0 800] ------- [0:255 13:255 32 0] 1 [1 2] [0 2 0 0->0] [0 0 0 0->0]
r 5.043393463 _5_ RTR  --- 75 DSR 32 [0 ffffffff 0 800] ------- [0:255 13:255 32 0] 1 [1 2] [0 2 0 0->0] [0 0 0 0->0]
r 5.043393503 _2_ RTR  --- 75 DSR 32 [0 ffffffff 0 800] ------- [0:255 13:255 32 0] 1 [1 2] [0 2 0 0->0] [0 0 0 0->0]
r 5.043393511 _4_ RTR  --- 75 DSR 32 [0 ffffffff 0 800] ------- [0:255 13:255 32 0] 1 [1 2] [0 2 0 0->0] [0 0 0 0->0]
r 5.043393541 _13_ RTR  --- 75 DSR 32 [0 ffffffff 0 800] ------- [0:255 13:255 32 0] 1 [1 2] [0 2 0 0->0] [0 0 0 0->0]
r 5.043393664 _3_ RTR  --- 75 DSR 32 [0 ffffffff 0 800] ------- [0:255 13:255 32 0] 1 [1 2] [0 2 0 0->0] [0 0 0 0->0]
s 5.043666835 _5_ RTR  --- 73 DSR 32 [0 0 0 0] ------- [5:255 11:255 32 0] 1 [1 2] [0 2 0 0->0] [0 0 0 0->0]
f 5.044076044 _12_ RTR  --- 75 DSR 48 [0 ffffffff 0 800] ------- [0:255 13:255 32 0] 2 [1 2] [0 2 0 0->0] [0 0 0 0->0]
s 5.044311440 _8_ RTR  --- 17 cbr 548 [0 0 0 0] ------- [8:0 2:0 32 2] [1] 0 0
r 5.044483185 _0_ RTR  --- 67 DSR 32 [0 ffffffff 7 800] ------- [7:255 4:255 32 0] 1 [1 2] [0 2 0 0->0] [0 0 0 0->0]
r 5.044483331 _12_ RTR  --- 67 DSR 32 [0 ffffffff 7 800] ------- [7:255 4:255 32 0] 1 [1 2] [0 2 0 0->0] [0 0 0 0->0]
r 5.044483470 _5_ RTR  --- 67 DSR 32 [0 ffffffff 7 800] ------- [7:255 4:255 32 0] 1 [1 2] [0 2 0 0->0] [0 0 0 0->0]
r 5.044483658 _13_ RTR  --- 67 DSR 32 [0 ffffffff 7 800] ------- [7:255 4:255 32 0] 1 [1 2] [0 2 0 0->0] [0 0 0 0->0]
r 5.044483659 _4_ RTR  --- 67 DSR 32 [0 ffffffff 7 800] ------- [7:255 4:255 32 0] 1 [1 2] [0 2 0 0->0] [0 0 0 0->0]
r 5.044483670 _8_ RTR  --- 67 DSR 32 [0 ffffffff 7 800] ------- [7:255 4:255 32 0] 1 [1 2] [0 2 0 0->0] [0 0 0 0->0]
r 5.044483680 _2_ RTR  --- 67 DSR 32 [0 ffffffff 7 800] ------- [7:255 4:255 32 0] 1 [1 2] [0 2 0 0->0] [0 0 0 0->0]
r 5.044483723 _3_ RTR  --- 67 DSR 32 [0 ffffffff 7 800] ------- [7:255 4:255 32 0] 1 [1 2] [0 2 0 0->0] [0 0 0 0->0]
f 5.045099009 _8_ RTR  --- 75 DSR 48 [0 ffffffff 0 800] ------- [0:255 13:255 32 0] 2 [1 2] [0 2 0 0->0] [0 0 0 0->0]
r 5.045253609 _12_ RTR  --- 73 DSR 32 [0 ffffffff 5 800] ------- [5:255 11:255 32 0] 1 [1 2] [0 2 0 0->0] [0 0 0 0->0]
r 5.045253896 _3_ RTR  --- 73 DSR 32 [0 ffffffff 5 800] ------- [5:255 11:255 32 0] 1 [1 2] [0 2 0 0->0] [0 0 0 0->0]
r 5.045253926 _7_ RTR  --- 73 DSR 32 [0 ffffffff 5 800] ------- [5:255 11:255 32 0] 1 [1 2] [0 2 0 0->0] [0 0 0 0->0]
r 5.045254040 _13_ RTR  --- 73 DSR 32 [0 ffffffff 5 800] ------- [5:255 11:255 32 0] 1 [1 2] [0 2 0 0->0] [0 0 0 0->0]
r 5.045254090 _0_ RTR  --- 73 DSR 32 [0 ffffffff 5 800] ------- [5:255 11:255 32 0] 1 [1 2] [0 2 0 0->0] [0 0 0 0->0]
r 5.045254123 _4_ RTR  --- 73 DSR 32 [0 ffffffff 5 800] ------- [5:255 11:255 32 0] 1 [1 2] [0 2 0 0->0] [0 0 0 0->0]
r 5.045254210 _2_ RTR  --- 73 DSR 32 [0 ffffffff 5 800] ------- [5:255 11:255 32 0] 1 [1 2] [0 2 0 0->0] [0 0 0 0->0]
f 5.045272975 _5_ RTR  --- 75 DSR 48 [0 ffffffff 0 800] ------- [0:255 13:255 32 0] 2 [1 2] [0 2 0 0->0] [0 0 0 0->0]
s 5.045714286 _8_ AGT  --- 90 cbr 512 [0 0 0 0] ------- [8:0 2:0 32 0] [5] 0 0
r 5.045714286 _8_ RTR  --- 90 cbr 512 [0 0 0 0] ------- [8:0 2:0 32 0] [5] 0 0
SFs 5.045714286 _8_ 90 [8 -> 2] 1(0) to 2 
s 5.045714286 _7_ AGT  --- 91 cbr 512 [0 0 0 0] ------- [7:0 4:0 32 0] [5] 0 0
r 5.045714286 _7_ RTR  --- 91 cbr 512 [0 0 0 0] ------- [7:0 4:0 32 0] [5] 0 0
s 5.045714286 _9_ AGT  --- 93 cbr 512 [0 0 0 0] ------- [9:0 12:0 32 0] [5] 0 0
r 5.045714286 _9_ RTR  --- 93 cbr 512 [0 0 0 0] ------- [9:0 12:0 32 0] [5] 0 0
s 5.045714286 _6_ AGT  --- 95 cbr 512 [0 0 0 0] ------- [6:0 10:0 32 0] [5] 0 0
r 5.045714286 _6_ RTR  --- 95 cbr 512 [0 0 0 0] ------- [6:0 10:0 32 0] [5] 0 0
s 5.045714286 _5_ AGT  --- 97 cbr 512 [0 0 0 0] ------- [5:0 11:0 32 0] [5] 0 0
r 5.045714286 _5_ RTR  --- 97 cbr 512 [0 0 0 0] ------- [5:0 11:0 32 0] [5] 0 0
s 5.045714286 _0_ AGT  --- 99 cbr 512 [0 0 0 0] ------- [0:0 13:0 32 0] [5] 0 0
r 5.045714286 _0_ RTR  --- 99 cbr 512 [0 0 0 0] ------- [0:0 13:0 32 0] [5] 0 0
s 5.045714286 _1_ AGT  --- 101 cbr 512 [0 0 0 0] ------- [1:0 3:0 32 0] [5] 0 0
r 5.045714286 _1_ RTR  --- 101 cbr 512 [0 0 0 0] ------- [1:0 3:0 32 0] [5] 0 0
s 5.045714286 _8_ RTR  --- 90 cbr 532 [0 0 0 0] ------- [8:0 2:0 32 2] [5] 0 0
r 5.046171748 _5_ RTR  --- 75 DSR 48 [0 ffffffff c 800] ------- [0:255 13:255 32 0] 2 [1 2] [0 2 0 0->0] [0 0 0 0->0]
r 5.046171927 _7_ RTR  --- 75 DSR 48 [0 ffffffff c 800] ------- [0:255 13:255 32 0] 2 [1 2] [0 2 0 0->0] [0 0 0 0->0]
r 5.046172082 _3_ RTR  --- 75 DSR 48 [0 ffffffff c 800] ------- [0:255 13:255 32 0] 2 [1 2] [0 2 0 0->0] [0 0 0 0->0]
r 5.046172090 _0_ RTR  --- 75 DSR 48 [0 ffffffff c 800] ------- [0:255 13:255 32 0] 2 [1 2] [0 2 0 0->0] [0 0 0 0->0]
r 5.046172150 _13_ RTR  --- 75 DSR 48 [0 ffffffff c 800] ------- [0:255 13:255 32 0] 2 [1 2] [0 2 0 0->0] [0 0 0 0->0]
r 5.046172211 _4_ RTR  --- 75 DSR 48 [0 ffffffff c 800] ------- [0:255 13:255 32 0] 2 [1 2] [0 2 0 0->0] [0 0 0 0->0]
r 5.046172283 _2_ RTR  --- 75 DSR 48 [0 ffffffff c 800] ------- [0:255 13:255 32 0] 2 [1 2] [0 2 0 0->0] [0 0 0 0->0]
r 5.046172383 _8_ RTR  --- 75 DSR 48 [0 ffffffff c 800] ------- [0:255 13:255 32 0] 2 [1 2] [0 2 0 0->0] [0 0 0 0->0]
f 5.046363874 _4_ RTR  --- 75 DSR 48 [0 ffffffff 0 800] ------- [0:255 13:255 32 0] 2 [1 2] [0 2 0 0->0] [0 0 0 0->0]
r 5.047349887 _12_ RTR  --- 75 DSR 48 [0 ffffffff 5 800] ------- [0:255 13:255 32 0] 2 [1 2] [0 2 0 0->0] [0 0 0 0->0]
s 5.047429683 _13_ RTR  --- 88 DSR 44 [0 0 0 0] ------- [13:255 0:255 254 0] 2 [0 2] [1 2 2 0->13] [0 0 0 0->0]
D 5.047429683 _13_ IFQ  ARP 33 DSR 44 [0 0 d 800] ------- [13:255 0:255 254 0] 2 [0 1] [1 1 2 0->13] [0 0 0 0->0]
s 5.047492849 _4_ RTR  --- 89 DSR 44 [0 0 0 0] ------- [4:255 7:255 254 7] 2 [0 2] [1 2 2 7->4] [0 0 0 0->0]
D 5.047492849 _4_ IFQ  ARP 16 DSR 44 [0 0 4 800] ------- [4:255 7:255 254 7] 2 [0 1] [1 1 2 7->4] [0 0 0 0->0]
f 5.047616844 _5_ RTR  --- 67 DSR 48 [0 ffffffff 7 800] ------- [7:255 4:255 32 0] 2 [1 2] [0 2 0 0->0] [0 0 0 0->0]
f 5.047737333 _2_ RTR  --- 73 DSR 48 [0 ffffffff 5 800] ------- [5:255 11:255 32 0] 2 [1 2] [0 2 0 0->0] [0 0 0 0->0]
f 5.048173229 _12_ RTR  --- 73 DSR 48 [0 ffffffff 5 800] ------- [5:255 11:255 32 0] 2 [1 2] [0 2 0 0->0] [0 0 0 0->0]
r 5.048604983 _12_ RTR  --- 67 DSR 48 [0 ffffffff 5 800] ------- [7:255 4:255 32 0] 2 [1 2] [0 2 0 0->0] [0 0 0 0->0]
r 5.048605270 _3_ RTR  --- 67 DSR 48 [0 ffffffff 5 800] ------- [7:255 4:255 32 0] 2 [1 2] [0 2 0 0->0] [0 0 0 0->0]
r 5.048605299 _7_ RTR  --- 67 DSR 48 [0 ffffffff 5 800] ------- [7:255 4:255 32 0] 2 [1 2] [0 2 0 0->0] [0 0 0 0->0]
r 5.048605413 _13_ RTR  --- 67 DSR 48 [0 ffffffff 5 800] ------- [7:255 4:255 32 0] 2 [1 2] [0 2 0 0->0] [0 0 0 0->0]
r 5.048605464 _0_ RTR  --- 67 DSR 48 [0 ffffffff 5 800] ------- [7:255 4:255 32 0] 2 [1 2] [0 2 0 0->0] [0 0 0 0->0]
r 5.048605497 _4_ RTR  --- 67 DSR 48 [0 ffffffff 5 800] ------- [7:255 4:255 32 0] 2 [1 2] [0 2 0 0->0] [0 0 0 0->0]
r 5.048605584 _2_ RTR  --- 67 DSR 48 [0 ffffffff 5 800] ------- [7:255 4:255 32 0] 2 [1 2] [0 2 0 0->0] [0 0 0 0->0]
f 5.048902203 _13_ RTR  --- 67 DSR 48 [0 ffffffff 7 800] ------- [7:255 4:255 32 0] 2 [1 2] [0 2 0 0->0] [0 0 0 0->0]
f 5.049916464 _7_ RTR  --- 75 DSR 48 [0 ffffffff 0 800] ------- [0:255 13:255 32 0] 2 [1 2] [0 2 0 0->0] [0 0 0 0->0]
f 5.049937647 _13_ RTR  --- 73 DSR 48 [0 ffffffff 5 800] ------- [5:255 11:255 32 0] 2 [1 2] [0 2 0 0->0] [0 0 0 0->0]
s 5.050136500 _13_ RTR  --- 109 DSR 52 [0 0 0 0] ------- [13:255 0:255 254 12] 3 [0 2] [1 2 3 0->13] [0 0 0 0->0]
f 5.050907811 _2_ RTR  --- 75 DSR 48 [0 ffffffff 0 800] ------- [0:255 13:255 32 0] 2 [1 2] [0 2 0 0->0] [0 0 0 0->0]
f 5.051000710 _3_ RTR  --- 73 DSR 48 [0 ffffffff 5 800] ------- [5:255 11:255 32 0] 2 [1 2] [0 2 0 0->0] [0 0 0 0->0]
r 5.051206422 _0_ RTR  --- 75 DSR 48 [0 ffffffff 7 800] ------- [0:255 13:255 32 0] 2 [1 2] [0 2 0 0->0] [0 0 0 0->0]
r 5.051206568 _12_ RTR  --- 75 DSR 48 [0 ffffffff 7 800] ------- [0:255 13:255 32 0] 2 [1 2] [0 2 0 0->0] [0 0 0 0->0]
r 5.051206706 _5_ RTR  --- 75 DSR 48 [0 ffffffff 7 800] ------- [0:255 13:255 32 0] 2 [1 2] [0 2 0 0->0] [0 0 0 0->0]
r 5.051206894 _13_ RTR  --- 75 DSR 48 [0 ffffffff 7 800] ------- [0:255 13:255 32 0] 2 [1 2] [0 2 0 0->0] [0 0 0 0->0]
r 5.051206895 _4_ RTR  --- 75 DSR 48 [0 ffffffff 7 800] ------- [0:255 13:255 32 0] 2 [1 2] [0 2 0 0->0] [0 0 0 0->0]
r 5.051206906 _8_ RTR  --- 75 DSR 48 [0 ffffffff 7 800] ------- [0:255 13:255 32 0] 2 [1 2] [0 2 0 0->0] [0 0 0 0->0]
r 5.051206916 _2_ RTR  --- 75 DSR 48 [0 ffffffff 7 800] ------- [0:255 13:255 32 0] 2 [1 2] [0 2 0 0->0] [0 0 0 0->0]
r 5.051206960 _3_ RTR  --- 75 DSR 48 [0 ffffffff 7 800] ------- [0:255 13:255 32 0] 2 [1 2] [0 2 0 0->0] [0 0 0 0->0]
s 5.051407618 _4_ RTR  --- 110 DSR 52 [0 0 0 0] ------- [4:255 7:255 254 5] 3 [0 2] [1 2 3 7->4] [0 0 0 0->0]
r 5.052245009 _2_ RTR  --- 75 DSR 48 [0 ffffffff 4 800] ------- [0:255 13:255 32 0] 2 [1 2] [0 2 0 0->0] [0 0 0 0->0]
r 5.052245018 _13_ RTR  --- 75 DSR 48 [0 ffffffff 4 800] ------- [0:255 13:255 32 0] 2 [1 2] [0 2 0 0->0] [0 0 0 0->0]
r 5.052245250 _8_ RTR  --- 75 DSR 48 [0 ffffffff 4 800] ------- [0:255 13:255 32 0] 2 [1 2] [0 2 0 0->0] [0 0 0 0->0]
r 5.052245312 _3_ RTR  --- 75 DSR 48 [0 ffffffff 4 800] ------- [0:255 13:255 32 0] 2 [1 2] [0 2 0 0->0] [0 0 0 0->0]
r 5.052245383 _11_ RTR  --- 75 DSR 48 [0 ffffffff 4 800] ------- [0:255 13:255 32 0] 2 [1 2] [0 2 0 0->0] [0 0 0 0->0]
r 5.052245497 _12_ RTR  --- 75 DSR 48 [0 ffffffff 4 800] ------- [0:255 13:255 32 0] 2 [1 2] [0 2 0 0->0] [0 0 0 0->0]
r 5.052245527 _10_ RTR  --- 75 DSR 48 [0 ffffffff 4 800] ------- [0:255 13:255 32 0] 2 [1 2] [0 2 0 0->0] [0 0 0 0->0]
r 5.052245540 _7_ RTR  --- 75 DSR 48 [0 ffffffff 4 800] ------- [0:255 13:255 32 0] 2 [1 2] [0 2 0 0->0] [0 0 0 0->0]
r 5.052245549 _5_ RTR  --- 75 DSR 48 [0 ffffffff 4 800] ------- [0:255 13:255 32 0] 2 [1 2] [0 2 0 0->0] [0 0 0 0->0]
r 5.052245564 _0_ RTR  --- 75 DSR 48 [0 ffffffff 4 800] ------- [0:255 13:255 32 0] 2 [1 2] [0 2 0 0->0] [0 0 0 0->0]
f 5.052246003 _0_ RTR  --- 73 DSR 48 [0 ffffffff 5 800] ------- [5:255 11:255 32 0] 2 [1 2] [0 2 0 0->0] [0 0 0 0->0]
f 5.052961784 _3_ RTR  --- 75 DSR 48 [0 ffffffff 0 800] ------- [0:255 13:255 32 0] 2 [1 2] [0 2 0 0->0] [0 0 0 0->0]
r 5.053163637 _5_ RTR  --- 73 DSR 48 [0 ffffffff c 800] ------- [5:255 11:255 32 0] 2 [1 2] [0 2 0 0->0] [0 0 0 0->0]
r 5.053163815 _7_ RTR  --- 73 DSR 48 [0 ffffffff c 800] ------- [5:255 11:255 32 0] 2 [1 2] [0 2 0 0->0] [0 0 0 0->0]
f 5.053305217 _12_ RTR  --- 67 DSR 48 [0 ffffffff 7 800] ------- [7:255 4:255 32 0] 2 [1 2] [0 2 0 0->0] [0 0 0 0->0]
f 5.053338239 _3_ RTR  --- 67 DSR 48 [0 ffffffff 7 800] ------- [7:255 4:255 32 0] 2 [1 2] [0 2 0 0->0] [0 0 0 0->0]
f 5.054067263 _8_ RTR  --- 67 DSR 48 [0 ffffffff 7 800] ------- [7:255 4:255 32 0] 2 [1 2] [0 2 0 0->0] [0 0 0 0->0]
f 5.054108309 _0_ RTR  --- 67 DSR 48 [0 ffffffff 7 800] ------- [7:255 4:255 32 0] 2 [1 2] [0 2 0 0->0] [0 0 0 0->0]
r 5.054301637 _5_ RTR  --- 67 DSR 48 [0 ffffffff c 800] ------- [7:255 4:255 32 0] 2 [1 2] [0 2 0 0->0] [0 0 0 0->0]
r 5.054301815 _7_ RTR  --- 67 DSR 48 [0 ffffffff c 800] ------- [7:255 4:255 32 0] 2 [1 2] [0 2 0 0->0] [0 0 0 0->0]
r 5.054301971 _3_ RTR  --- 67 DSR 48 [0 ffffffff c 800] ------- [7:255 4:255 32 0] 2 [1 2] [0 2 0 0->0] [0 0 0 0->0]
r 5.054301979 _0_ RTR  --- 67 DSR 48 [0 ffffffff c 800] ------- [7:255 4:255 32 0] 2 [1 2] [0 2 0 0->0] [0 0 0 0->0]
r 5.054302038 _13_ RTR  --- 67 DSR 48 [0 ffffffff c 800] ------- [7:255 4:255 32 0] 2 [1 2] [0 2 0 0->0] [0 0 0 0->0]
r 5.054302099 _4_ RTR  --- 67 DSR 48 [0 ffffffff c 800] ------- [7:255 4:255 32 0] 2 [1 2] [0 2 0 0->0] [0 0 0 0->0]
r 5.054302171 _2_ RTR  --- 67 DSR 48 [0 ffffffff c 800] ------- [7:255 4:255 32 0] 2 [1 2] [0 2 0 0->0] [0 0 0 0->0]
r 5.054302272 _8_ RTR  --- 67 DSR 48 [0 ffffffff c 800] ------- [7:255 4:255 32 0] 2 [1 2] [0 2 0 0->0] [0 0 0 0->0]
f 5.054407114 _2_ RTR  --- 67 DSR 48 [0 ffffffff 7 800] ------- [7:255 4:255 32 0] 2 [1 2] [0 2 0 0->0] [0 0 0 0->0]
f 5.054608172 _4_ RTR  --- 73 DSR 48 [0 ffffffff 5 800] ------- [5:255 11:255 32 0] 2 [1 2] [0 2 0 0->0] [0 0 0 0->0]
s 5.054857143 _8_ AGT  --- 120 cbr 512 [0 0 0 0] ------- [8:0 2:0 32 0] [6] 0 0
r 5.054857143 _8_ RTR  --- 120 cbr 512 [0 0 0 0] ------- [8:0 2:0 32 0] [6] 0 0
SFs 5.054857143 _8_ 120 [8 -> 2] 1(0) to 2 
s 5.054857143 _7_ AGT  --- 121 cbr 512 [0 0 0 0] ------- [7:0 4:0 32 0] [6] 0 0
r 5.054857143 _7_ RTR  --- 121 cbr 512 [0 0 0 0] ------- [7:0 4:0 32 0] [6] 0 0
s 5.054857143 _9_ AGT  --- 123 cbr 512 [0 0 0 0] ------- [9:0 12:0 32 0] [6] 0 0
r 5.054857143 _9_ RTR  --- 123 cbr 512 [0 0 0 0] ------- [9:0 12:0 32 0] [6] 0 0
s 5.054857143 _6_ AGT  --- 125 cbr 512 [0 0 0 0] ------- [6:0 10:0 32 0] [6] 0 0
r 5.054857143 _6_ RTR  --- 125 cbr 512 [0 0 0 0] ------- [6:0 10:0 32 0] [6] 0 0
s 5.054857143 _5_ AGT  --- 127 cbr 512 [0 0 0 0] ------- [5:0 11:0 32 0] [6] 0 0
r 5.054857143 _5_ RTR  --- 127 cbr 512 [0 0 0 0] ------- [5:0 11:0 32 0] [6] 0 0
s 5.054857143 _0_ AGT  --- 129 cbr 512 [0 0 0 0] ------- [0:0 13:0 32 0] [6] 0 0
r 5.054857143 _0_ RTR  --- 129 cbr 512 [0 0 0 0] ------- [0:0 13:0 32 0] [6] 0 0
s 5.054857143 _1_ AGT  --- 131 cbr 512 [0 0 0 0] ------- [1:0 3:0 32 0] [6] 0 0
r 5.054857143 _1_ RTR  --- 131 cbr 512 [0 0 0 0] ------- [1:0 3:0 32 0] [6] 0 0
s 5.054857143 _8_ RTR  --- 120 cbr 532 [0 0 0 0] ------- [8:0 2:0 32 2] [6] 0 0
f 5.055241016 _7_ RTR  --- 73 DSR 48 [0 ffffffff 5 800] ------- [5:255 11:255 32 0] 2 [1 2] [0 2 0 0->0] [0 0 0 0->0]
r 5.055260265 _13_ RTR  --- 73 DSR 48 [0 ffffffff 3 800] ------- [5:255 11:255 32 0] 2 [1 2] [0 2 0 0->0] [0 0 0 0->0]
r 5.055260387 _4_ RTR  --- 73 DSR 48 [0 ffffffff 3 800] ------- [5:255 11:255 32 0] 2 [1 2] [0 2 0 0->0] [0 0 0 0->0]
r 5.055260388 _11_ RTR  --- 73 DSR 48 [0 ffffffff 3 800] ------- [5:255 11:255 32 0] 2 [1 2] [0 2 0 0->0] [0 0 0 0->0]
r 5.055260397 _5_ RTR  --- 73 DSR 48 [0 ffffffff 3 800] ------- [5:255 11:255 32 0] 2 [1 2] [0 2 0 0->0] [0 0 0 0->0]
r 5.055260444 _12_ RTR  --- 73 DSR 48 [0 ffffffff 3 800] ------- [5:255 11:255 32 0] 2 [1 2] [0 2 0 0->0] [0 0 0 0->0]
r 5.055260500 _2_ RTR  --- 73 DSR 48 [0 ffffffff 3 800] ------- [5:255 11:255 32 0] 2 [1 2] [0 2 0 0->0] [0 0 0 0->0]
r 5.055260642 _10_ RTR  --- 73 DSR 48 [0 ffffffff 3 800] ------- [5:255 11:255 32 0] 2 [1 2] [0 2 0 0->0] [0 0 0 0->0]
r 5.055260681 _7_ RTR  --- 73 DSR 48 [0 ffffffff 3 800] ------- [5:255 11:255 32 0] 2 [1 2] [0 2 0 0->0] [0 0 0 0->0]
r 5.055260726 _8_ RTR  --- 73 DSR 48 [0 ffffffff 3 800] ------- [5:255 11:255 32 0] 2 [1 2] [0 2 0 0->0] [0 0 0 0->0]
r 5.055260793 _0_ RTR  --- 73 DSR 48 [0 ffffffff 3 800] ------- [5:255 11:255 32 0] 2 [1 2] [0 2 0 0->0] [0 0 0 0->0]
s 5.055552950 _13_ RTR  --- 118 DSR 52 [0 0 0 0] ------- [13:255 0:255 254 4] 3 [0 2] [1 2 3 0->13] [0 0 0 0->0]
r 5.056318614 _4_ RTR  --- 75 DSR 48 [0 ffffffff 2 800] ------- [0:255 13:255 32 0] 2 [1 2] [0 2 0 0->0] [0 0 0 0->0]
r 5.056318737 _13_ RTR  --- 75 DSR 48 [0 ffffffff 2 800] ------- [0:255 13:255 32 0] 2 [1 2] [0 2 0 0->0] [0 0 0 0->0]
r 5.056318752 _8_ RTR  --- 75 DSR 48 [0 ffffffff 2 800] ------- [0:255 13:255 32 0] 2 [1 2] [0 2 0 0->0] [0 0 0 0->0]