Sconfig 0.00000 tap: on snoop: rts? on errs? on
Sconfig 0.00000 salvage: on !bd replies? on
Sconfig 0.00000 grat error: on grat reply: on
Sconfig 0.00000 $reply for props: on ring 0 search: on
Sconfig 0.00000 using MOBICACHE
M 5.00000 0 (338.00, 410.00, 0.00), (212.00, 388.00), 7.00
M 5.00000 1 (31.00, 255.00, 0.00), (273.00, 91.00), 7.00
M 5.00000 2 (94.00, 133.00, 0.00), (110.00, 444.00), 7.00
M 5.00000 3 (250.00, 64.00, 0.00), (463.00, 240.00), 7.00
M 5.00000 4 (18.00, 327.00, 0.00), (464.00, 170.00), 7.00
M 5.00000 5 (170.00, 469.00, 0.00), (20.00, 250.00), 7.00
M 5.00000 6 (395.00, 293.00, 0.00), (445.00, 395.00), 7.00
M 5.00000 7 (185.00, 173.00, 0.00), (450.00, 437.00), 7.00
M 5.00000 8 (72.00, 437.00, 0.00), (334.00, 244.00), 7.00
M 5.00000 9 (333.00, 395.00, 0.00), (491.00, 292.00), 7.00
M 5.00000 10 (384.00, 150.00, 0.00), (224.00, 205.00), 7.00
M 5.00000 11 (243.00, 375.00, 0.00), (118.00, 11.00), 7.00
M 5.00000 12 (120.00, 14.00, 0.00), (45.00, 241.00), 7.00
M 5.00000 13 (492.00, 99.00, 0.00), (283.00, 224.00), 7.00
s 5.000000000 _7_ AGT  --- 0 cbr 512 [0 0 0 0] ------- [7:0 11:0 32 0] [0] 0 0
r 5.000000000 _7_ RTR  --- 0 cbr 512 [0 0 0 0] ------- [7:0 11:0 32 0] [0] 0 0
s 5.000000000 _6_ AGT  --- 2 cbr 512 [0 0 0 0] ------- [6:0 5:0 32 0] [0] 0 0
r 5.000000000 _6_ RTR  --- 2 cbr 512 [0 0 0 0] ------- [6:0 5:0 32 0] [0] 0 0
s 5.000000000 _10_ AGT  --- 4 cbr 512 [0 0 0 0] ------- [10:0 0:0 32 0] [0] 0 0
r 5.000000000 _10_ RTR  --- 4 cbr 512 [0 0 0 0] ------- [10:0 0:0 32 0] [0] 0 0
s 5.000000000 _4_ AGT  --- 6 cbr 512 [0 0 0 0] ------- [4:0 12:0 32 0] [0] 0 0
r 5.000000000 _4_ RTR  --- 6 cbr 512 [0 0 0 0] ------- [4:0 12:0 32 0] [0] 0 0
s 5.000000000 _1_ AGT  --- 8 cbr 512 [0 0 0 0] ------- [1:0 13:0 32 0] [0] 0 0
r 5.000000000 _1_ RTR  --- 8 cbr 512 [0 0 0 0] ------- [1:0 13:0 32 0] [0] 0 0
s 5.000000000 _2_ AGT  --- 10 cbr 512 [0 0 0 0] ------- [2:0 3:0 32 0] [0] 0 0
r 5.000000000 _2_ RTR  --- 10 cbr 512 [0 0 0 0] ------- [2:0 3:0 32 0] [0] 0 0
s 5.000000000 _9_ AGT  --- 12 cbr 512 [0 0 0 0] ------- [9:0 8:0 32 0] [0] 0 0
r 5.000000000 _9_ RTR  --- 12 cbr 512 [0 0 0 0] ------- [9:0 8:0 32 0] [0] 0 0
s 5.001020609 _9_ RTR  --- 13 DSR 32 [0 0 0 0] ------- [9:255 8:255 32 0] 1 [1 1] [0 1 0 0->0] [0 0 0 0->0]
s 5.001062646 _4_ RTR  --- 7 DSR 32 [0 0 0 0] ------- [4:255 12:255 32 0] 1 [1 1] [0 1 0 0->0] [0 0 0 0->0]
r 5.001900662 _0_ RTR  --- 13 DSR 32 [0 ffffffff 9 800] ------- [9:255 8:255 32 0] 1 [1 1] [0 1 0 0->0] [0 0 0 0->0]
r 5.001900916 _11_ RTR  --- 13 DSR 32 [0 ffffffff 9 800] ------- [9:255 8:255 32 0] 1 [1 1] [0 1 0 0->0] [0 0 0 0->0]
r 5.001901007 _6_ RTR  --- 13 DSR 32 [0 ffffffff 9 800] ------- [9:255 8:255 32 0] 1 [1 1] [0 1 0 0->0] [0 0 0 0->0]
r 5.001901206 _5_ RTR  --- 13 DSR 32 [0 ffffffff 9 800] ------- [9:255 8:255 32 0] 1 [1 1] [0 1 0 0->0] [0 0 0 0->0]
s 5.002356581 _10_ RTR  --- 5 DSR 32 [0 0 0 0] ------- [10:255 0:255 32 0] 1 [1 1] [0 1 0 0->0] [0 0 0 0->0]
s 5.002771051 _7_ RTR  --- 1 DSR 32 [0 0 0 0] ------- [7:255 11:255 32 0] 1 [1 1] [0 1 0 0->0] [0 0 0 0->0]
r 5.003355927 _1_ RTR  --- 7 DSR 32 [0 ffffffff 4 800] ------- [4:255 12:255 32 0] 1 [1 1] [0 1 0 0->0] [0 0 0 0->0]
r 5.003356092 _8_ RTR  --- 7 DSR 32 [0 ffffffff 4 800] ------- [4:255 12:255 32 0] 1 [1 1] [0 1 0 0->0] [0 0 0 0->0]
r 5.003356377 _5_ RTR  --- 7 DSR 32 [0 ffffffff 4 800] ------- [4:255 12:255 32 0] 1 [1 1] [0 1 0 0->0] [0 0 0 0->0]
r 5.003356378 _2_ RTR  --- 7 DSR 32 [0 ffffffff 4 800] ------- [4:255 12:255 32 0] 1 [1 1] [0 1 0 0->0] [0 0 0 0->0]
r 5.003356440 _7_ RTR  --- 7 DSR 32 [0 ffffffff 4 800] ------- [4:255 12:255 32 0] 1 [1 1] [0 1 0 0->0] [0 0 0 0->0]
r 5.003356450 _11_ RTR  --- 7 DSR 32 [0 ffffffff 4 800] ------- [4:255 12:255 32 0] 1 [1 1] [0 1 0 0->0] [0 0 0 0->0]
s 5.003775053 _1_ RTR  --- 9 DSR 32 [0 0 0 0] ------- [1:255 13:255 32 0] 1 [1 1] [0 1 0 0->0] [0 0 0 0->0]
r 5.004566772 _2_ RTR  --- 1 DSR 32 [0 ffffffff 7 800] ------- [7:255 11:255 32 0] 1 [1 1] [0 1 0 0->0] [0 0 0 0->0]
r 5.004566863 _3_ RTR  --- 1 DSR 32 [0 ffffffff 7 800] ------- [7:255 11:255 32 0] 1 [1 1] [0 1 0 0->0] [0 0 0 0->0]
r 5.004567013 _12_ RTR  --- 1 DSR 32 [0 ffffffff 7 800] ------- [7:255 11:255 32 0] 1 [1 1] [0 1 0 0->0] [0 0 0 0->0]
r 5.004567022 _1_ RTR  --- 1 DSR 32 [0 ffffffff 7 800] ------- [7:255 11:255 32 0] 1 [1 1] [0 1 0 0->0] [0 0 0 0->0]
r 5.004567108 _10_ RTR  --- 1 DSR 32 [0 ffffffff 7 800] ------- [7:255 11:255 32 0] 1 [1 1] [0 1 0 0->0] [0 0 0 0->0]
r 5.004567141 _11_ RTR  --- 1 DSR 32 [0 ffffffff 7 800] ------- [7:255 11:255 32 0] 1 [1 1] [0 1 0 0->0] [0 0 0 0->0]
r 5.004567198 _4_ RTR  --- 1 DSR 32 [0 ffffffff 7 800] ------- [7:255 11:255 32 0] 1 [1 1] [0 1 0 0->0] [0 0 0 0->0]
r 5.004567247 _6_ RTR  --- 1 DSR 32 [0 ffffffff 7 800] ------- [7:255 11:255 32 0] 1 [1 1] [0 1 0 0->0] [0 0 0 0->0]
r 5.005377506 _13_ RTR  --- 5 DSR 32 [0 ffffffff a 800] ------- [10:255 0:255 32 0] 1 [1 1] [0 1 0 0->0] [0 0 0 0->0]
r 5.005377586 _6_ RTR  --- 5 DSR 32 [0 ffffffff a 800] ------- [10:255 0:255 32 0] 1 [1 1] [0 1 0 0->0] [0 0 0 0->0]
r 5.005377639 _3_ RTR  --- 5 DSR 32 [0 ffffffff a 800] ------- [10:255 0:255 32 0] 1 [1 1] [0 1 0 0->0] [0 0 0 0->0]
r 5.005377776 _7_ RTR  --- 5 DSR 32 [0 ffffffff a 800] ------- [10:255 0:255 32 0] 1 [1 1] [0 1 0 0->0] [0 0 0 0->0]
s 5.006244338 _6_ RTR  --- 3 DSR 32 [0 0 0 0] ------- [6:255 5:255 32 0] 1 [1 1] [0 1 0 0->0] [0 0 0 0->0]
r 5.007012579 _4_ RTR  --- 9 DSR 32 [0 ffffffff 1 800] ------- [1:255 13:255 32 0] 1 [1 1] [0 1 0 0->0] [0 0 0 0->0]
r 5.007012793 _2_ RTR  --- 9 DSR 32 [0 ffffffff 1 800] ------- [1:255 13:255 32 0] 1 [1 1] [0 1 0 0->0] [0 0 0 0->0]
r 5.007012917 _7_ RTR  --- 9 DSR 32 [0 ffffffff 1 800] ------- [1:255 13:255 32 0] 1 [1 1] [0 1 0 0->0] [0 0 0 0->0]
r 5.007012957 _8_ RTR  --- 9 DSR 32 [0 ffffffff 1 800] ------- [1:255 13:255 32 0] 1 [1 1] [0 1 0 0->0] [0 0 0 0->0]
r 5.007013147 _11_ RTR  --- 9 DSR 32 [0 ffffffff 1 800] ------- [1:255 13:255 32 0] 1 [1 1] [0 1 0 0->0] [0 0 0 0->0]
r 5.008187953 _9_ RTR  --- 3 DSR 32 [0 ffffffff 6 800] ------- [6:255 5:255 32 0] 1 [1 1] [0 1 0 0->0] [0 0 0 0->0]
r 5.008187989 _0_ RTR  --- 3 DSR 32 [0 ffffffff 6 800] ------- [6:255 5:255 32 0] 1 [1 1] [0 1 0 0->0] [0 0 0 0->0]
r 5.008188034 _10_ RTR  --- 3 DSR 32 [0 ffffffff 6 800] ------- [6:255 5:255 32 0] 1 [1 1] [0 1 0 0->0] [0 0 0 0->0]
r 5.008188131 _11_ RTR  --- 3 DSR 32 [0 ffffffff 6 800] ------- [6:255 5:255 32 0] 1 [1 1] [0 1 0 0->0] [0 0 0 0->0]
r 5.008188278 _13_ RTR  --- 3 DSR 32 [0 ffffffff 6 800] ------- [6:255 5:255 32 0] 1 [1 1] [0 1 0 0->0] [0 0 0 0->0]
r 5.008188362 _7_ RTR  --- 3 DSR 32 [0 ffffffff 6 800] ------- [6:255 5:255 32 0] 1 [1 1] [0 1 0 0->0] [0 0 0 0->0]
s 5.009142857 _7_ AGT  --- 16 cbr 512 [0 0 0 0] ------- [7:0 11:0 32 0] [1] 0 0
r 5.009142857 _7_ RTR  --- 16 cbr 512 [0 0 0 0] ------- [7:0 11:0 32 0] [1] 0 0
s 5.009142857 _6_ AGT  --- 18 cbr 512 [0 0 0 0] ------- [6:0 5:0 32 0] [1] 0 0
r 5.009142857 _6_ RTR  --- 18 cbr 512 [0 0 0 0] ------- [6:0 5:0 32 0] [1] 0 0
s 5.009142857 _10_ AGT  --- 20 cbr 512 [0 0 0 0] ------- [10:0 0:0 32 0] [1] 0 0
r 5.009142857 _10_ RTR  --- 20 cbr 512 [0 0 0 0] ------- [10:0 0:0 32 0] [1] 0 0
s 5.009142857 _4_ AGT  --- 22 cbr 512 [0 0 0 0] ------- [4:0 12:0 32 0] [1] 0 0
r 5.009142857 _4_ RTR  --- 22 cbr 512 [0 0 0 0] ------- [4:0 12:0 32 0] [1] 0 0
s 5.009142857 _1_ AGT  --- 24 cbr 512 [0 0 0 0] ------- [1:0 13:0 32 0] [1] 0 0
r 5.009142857 _1_ RTR  --- 24 cbr 512 [0 0 0 0] ------- [1:0 13:0 32 0] [1] 0 0
s 5.009142857 _2_ AGT  --- 26 cbr 512 [0 0 0 0] ------- [2:0 3:0 32 0] [1] 0 0
r 5.009142857 _2_ RTR  --- 26 cbr 512 [0 0 0 0] ------- [2:0 3:0 32 0] [1] 0 0
s 5.009142857 _9_ AGT  --- 28 cbr 512 [0 0 0 0] ------- [9:0 8:0 32 0] [1] 0 0
r 5.009142857 _9_ RTR  --- 28 cbr 512 [0 0 0 0] ------- [9:0 8:0 32 0] [1] 0 0
s 5.009292293 _2_ RTR  --- 11 DSR 32 [0 0 0 0] ------- [2:255 3:255 32 0] 1 [1 1] [0 1 0 0->0] [0 0 0 0->0]
r 5.010632624 _7_ RTR  --- 11 DSR 32 [0 ffffffff 2 800] ------- [2:255 3:255 32 0] 1 [1 1] [0 1 0 0->0] [0 0 0 0->0]
r 5.010632699 _12_ RTR  --- 11 DSR 32 [0 ffffffff 2 800] ------- [2:255 3:255 32 0] 1 [1 1] [0 1 0 0->0] [0 0 0 0->0]
r 5.010632750 _1_ RTR  --- 11 DSR 32 [0 ffffffff 2 800] ------- [2:255 3:255 32 0] 1 [1 1] [0 1 0 0->0] [0 0 0 0->0]
r 5.010632861 _3_ RTR  --- 11 DSR 32 [0 ffffffff 2 800] ------- [2:255 3:255 32 0] 1 [1 1] [0 1 0 0->0] [0 0 0 0->0]
r 5.010632987 _4_ RTR  --- 11 DSR 32 [0 ffffffff 2 800] ------- [2:255 3:255 32 0] 1 [1 1] [0 1 0 0->0] [0 0 0 0->0]
s 5.013085448 _11_ RTR  --- 15 DSR 44 [0 0 0 0] ------- [11:255 7:255 254 7] 2 [0 1] [1 1 2 7->11] [0 0 0 0->0]
s 5.016639726 _3_ RTR  --- 32 DSR 44 [0 0 0 0] ------- [3:255 2:255 254 2] 2 [0 1] [1 1 2 2->3] [0 0 0 0->0]
r 5.018093347 _7_ RTR  --- 15 DSR 44 [13a 7 b 800] ------- [11:255 7:255 254 7] 2 [0 1] [1 1 2 7->11] [0 0 0 0->0]
SFESTs 5.018093347 _7_ 0 [7 -> 11] 1(1) to 11 [7 |11 ]
SFESTs 5.018093347 _7_ 16 [7 -> 11] 1(1) to 11 [7 |11 ]
s 5.018093347 _7_ RTR  --- 0 cbr 548 [0 0 0 0] ------- [7:0 11:0 32 11] [0] 0 0
s 5.018285714 _7_ AGT  --- 35 cbr 512 [0 0 0 0] ------- [7:0 11:0 32 0] [2] 0 0
r 5.018285714 _7_ RTR  --- 35 cbr 512 [0 0 0 0] ------- [7:0 11:0 32 0] [2] 0 0
SFESTs 5.018285714 _7_ 35 [7 -> 11] 1(1) to 11 [7 |11 ]
s 5.018285714 _6_ AGT  --- 36 cbr 512 [0 0 0 0] ------- [6:0 5:0 32 0] [2] 0 0
r 5.018285714 _6_ RTR  --- 36 cbr 512 [0 0 0 0] ------- [6:0 5:0 32 0] [2] 0 0
s 5.018285714 _10_ AGT  --- 38 cbr 512 [0 0 0 0] ------- [10:0 0:0 32 0] [2] 0 0
r 5.018285714 _10_ RTR  --- 38 cbr 512 [0 0 0 0] ------- [10:0 0:0 32 0] [2] 0 0
s 5.018285714 _4_ AGT  --- 40 cbr 512 [0 0 0 0] ------- [4:0 12:0 32 0] [2] 0 0
r 5.018285714 _4_ RTR  --- 40 cbr 512 [0 0 0 0] ------- [4:0 12:0 32 0] [2] 0 0
s 5.018285714 _1_ AGT  --- 42 cbr 512 [0 0 0 0] ------- [1:0 13:0 32 0] [2] 0 0
r 5.018285714 _1_ RTR  --- 42 cbr 512 [0 0 0 0] ------- [1:0 13:0 32 0] [2] 0 0
s 5.018285714 _2_ AGT  --- 44 cbr 512 [0 0 0 0] ------- [2:0 3:0 32 0] [2] 0 0
r 5.018285714 _2_ RTR  --- 44 cbr 512 [0 0 0 0] ------- [2:0 3:0 32 0] [2] 0 0
s 5.018285714 _9_ AGT  --- 46 cbr 512 [0 0 0 0] ------- [9:0 8:0 32 0] [2] 0 0
r 5.018285714 _9_ RTR  --- 46 cbr 512 [0 0 0 0] ------- [9:0 8:0 32 0] [2] 0 0
s 5.018285714 _7_ RTR  --- 35 cbr 548 [0 0 0 0] ------- [7:0 11:0 32 11] [2] 0 0
r 5.024203447 _11_ RTR  --- 0 cbr 548 [13a b 7 800] ------- [7:0 11:0 32 11] [0] 1 0
r 5.024203447 _11_ AGT  --- 0 cbr 512 [13a b 7 800] ------- [7:0 11:0 32 11] [0] 1 0
s 5.027428571 _7_ AGT  --- 51 cbr 512 [0 0 0 0] ------- [7:0 11:0 32 0] [3] 0 0
r 5.027428571 _7_ RTR  --- 51 cbr 512 [0 0 0 0] ------- [7:0 11:0 32 0] [3] 0 0
SFs 5.027428571 _7_ 51 [7 -> 11] 1(0) to 11 
s 5.027428571 _6_ AGT  --- 52 cbr 512 [0 0 0 0] ------- [6:0 5:0 32 0] [3] 0 0
r 5.027428571 _6_ RTR  --- 52 cbr 512 [0 0 0 0] ------- [6:0 5:0 32 0] [3] 0 0
s 5.027428571 _10_ AGT  --- 54 cbr 512 [0 0 0 0] ------- [10:0 0:0 32 0] [3] 0 0
r 5.027428571 _10_ RTR  --- 54 cbr 512 [0 0 0 0] ------- [10:0 0:0 32 0] [3] 0 0
s 5.027428571 _4_ AGT  --- 56 cbr 512 [0 0 0 0] ------- [4:0 12:0 32 0] [3] 0 0
r 5.027428571 _4_ RTR  --- 56 cbr 512 [0 0 0 0] ------- [4:0 12:0 32 0] [3] 0 0
s 5.027428571 _1_ AGT  --- 58 cbr 512 [0 0 0 0] ------- [1:0 13:0 32 0] [3] 0 0
r 5.027428571 _1_ RTR  --- 58 cbr 512 [0 0 0 0] ------- [1:0 13:0 32 0] [3] 0 0
s 5.027428571 _2_ AGT  --- 60 cbr 512 [0 0 0 0] ------- [2:0 3:0 32 0] [3] 0 0
r 5.027428571 _2_ RTR  --- 60 cbr 512 [0 0 0 0] ------- [2:0 3:0 32 0] [3] 0 0
s 5.027428571 _9_ AGT  --- 62 cbr 512 [0 0 0 0] ------- [9:0 8:0 32 0] [3] 0 0
r 5.027428571 _9_ RTR  --- 62 cbr 512 [0 0 0 0] ------- [9:0 8:0 32 0] [3] 0 0
s 5.027428571 _7_ RTR  --- 51 cbr 532 [0 0 0 0] ------- [7:0 11:0 32 11] [3] 0 0
r 5.030434244 _11_ RTR  --- 35 cbr 548 [13a b 7 800] ------- [7:0 11:0 32 11] [2] 1 0
r 5.030434244 _11_ AGT  --- 35 cbr 512 [13a b 7 800] ------- [7:0 11:0 32 11] [2] 1 0
s 5.036571429 _7_ AGT  --- 64 cbr 512 [0 0 0 0] ------- [7:0 11:0 32 0] [4] 0 0
r 5.036571429 _7_ RTR  --- 64 cbr 512 [0 0 0 0] ------- [7:0 11:0 32 0] [4] 0 0
SFs 5.036571429 _7_ 64 [7 -> 11] 1(0) to 11 
s 5.036571429 _6_ AGT  --- 65 cbr 512 [0 0 0 0] ------- [6:0 5:0 32 0] [4] 0 0
r 5.036571429 _6_ RTR  --- 65 cbr 512 [0 0 0 0] ------- [6:0 5:0 32 0] [4] 0 0
s 5.036571429 _10_ AGT  --- 67 cbr 512 [0 0 0 0] ------- [10:0 0:0 32 0] [4] 0 0
r 5.036571429 _10_ RTR  --- 67 cbr 512 [0 0 0 0] ------- [10:0 0:0 32 0] [4] 0 0
s 5.036571429 _4_ AGT  --- 69 cbr 512 [0 0 0 0] ------- [4:0 12:0 32 0] [4] 0 0
r 5.036571429 _4_ RTR  --- 69 cbr 512 [0 0 0 0] ------- [4:0 12:0 32 0] [4] 0 0
s 5.036571429 _1_ AGT  --- 71 cbr 512 [0 0 0 0] ------- [1:0 13:0 32 0] [4] 0 0
r 5.036571429 _1_ RTR  --- 71 cbr 512 [0 0 0 0] ------- [1:0 13:0 32 0] [4] 0 0
s 5.036571429 _2_ AGT  --- 73 cbr 512 [0 0 0 0] ------- [2:0 3:0 32 0] [4] 0 0
r 5.036571429 _2_ RTR  --- 73 cbr 512 [0 0 0 0] ------- [2:0 3:0 32 0] [4] 0 0
s 5.036571429 _9_ AGT  --- 75 cbr 512 [0 0 0 0] ------- [9:0 8:0 32 0] [4] 0 0
r 5.036571429 _9_ RTR  --- 75 cbr 512 [0 0 0 0] ------- [9:0 8:0 32 0] [4] 0 0
s 5.036571429 _7_ RTR  --- 64 cbr 532 [0 0 0 0] ------- [7:0 11:0 32 11] [4] 0 0
r 5.036637041 _11_ RTR  --- 51 cbr 532 [13a b 7 800] ------- [7:0 11:0 32 11] [3] 1 0
r 5.036637041 _11_ AGT  --- 51 cbr 512 [13a b 7 800] ------- [7:0 11:0 32 11] [3] 1 0
s 5.039786142 _10_ RTR  --- 68 DSR 32 [0 0 0 0] ------- [10:255 0:255 32 0] 1 [1 2] [0 2 0 0->0] [0 0 0 0->0]
s 5.040505077 _9_ RTR  --- 76 DSR 32 [0 0 0 0] ------- [9:255 8:255 32 0] 1 [1 2] [0 2 0 0->0] [0 0 0 0->0]
s 5.040996818 _1_ RTR  --- 72 DSR 32 [0 0 0 0] ------- [1:255 13:255 32 0] 1 [1 2] [0 2 0 0->0] [0 0 0 0->0]
s 5.041133127 _4_ RTR  --- 70 DSR 32 [0 0 0 0] ------- [4:255 12:255 32 0] 1 [1 2] [0 2 0 0->0] [0 0 0 0->0]
s 5.042105639 _6_ RTR  --- 66 DSR 32 [0 0 0 0] ------- [6:255 5:255 32 0] 1 [1 2] [0 2 0 0->0] [0 0 0 0->0]
s 5.042788523 _2_ RTR  --- 74 DSR 32 [0 0 0 0] ------- [2:255 3:255 32 0] 1 [1 2] [0 2 0 0->0] [0 0 0 0->0]
r 5.042839837 _11_ RTR  --- 64 cbr 532 [13a b 7 800] ------- [7:0 11:0 32 11] [4] 1 0
r 5.042839837 _11_ AGT  --- 64 cbr 512 [13a b 7 800] ------- [7:0 11:0 32 11] [4] 1 0
r 5.044024892 _4_ RTR  --- 72 DSR 32 [0 ffffffff 1 800] ------- [1:255 13:255 32 0] 1 [1 2] [0 2 0 0->0] [0 0 0 0->0]
r 5.044025103 _2_ RTR  --- 72 DSR 32 [0 ffffffff 1 800] ------- [1:255 13:255 32 0] 1 [1 2] [0 2 0 0->0] [0 0 0 0->0]
r 5.044025228 _7_ RTR  --- 72 DSR 32 [0 ffffffff 1 800] ------- [1:255 13:255 32 0] 1 [1 2] [0 2 0 0->0] [0 0 0 0->0]
r 5.044025269 _8_ RTR  --- 72 DSR 32 [0 ffffffff 1 800] ------- [1:255 13:255 32 0] 1 [1 2] [0 2 0 0->0] [0 0 0 0->0]
r 5.044025458 _11_ RTR  --- 72 DSR 32 [0 ffffffff 1 800] ------- [1:255 13:255 32 0] 1 [1 2] [0 2 0 0->0] [0 0 0 0->0]
r 5.044855136 _1_ RTR  --- 70 DSR 32 [0 ffffffff 4 800] ------- [4:255 12:255 32 0] 1 [1 2] [0 2 0 0->0] [0 0 0 0->0]
r 5.044855300 _8_ RTR  --- 70 DSR 32 [0 ffffffff 4 800] ------- [4:255 12:255 32 0] 1 [1 2] [0 2 0 0->0] [0 0 0 0->0]
r 5.044855583 _5_ RTR  --- 70 DSR 32 [0 ffffffff 4 800] ------- [4:255 12:255 32 0] 1 [1 2] [0 2 0 0->0] [0 0 0 0->0]
r 5.044855584 _2_ RTR  --- 70 DSR 32 [0 ffffffff 4 800] ------- [4:255 12:255 32 0] 1 [1 2] [0 2 0 0->0] [0 0 0 0->0]
r 5.044855648 _7_ RTR  --- 70 DSR 32 [0 ffffffff 4 800] ------- [4:255 12:255 32 0] 1 [1 2] [0 2 0 0->0] [0 0 0 0->0]
r 5.044855657 _11_ RTR  --- 70 DSR 32 [0 ffffffff 4 800] ------- [4:255 12:255 32 0] 1 [1 2] [0 2 0 0->0] [0 0 0 0->0]
f 5.045538020 _8_ RTR  --- 70 DSR 48 [0 ffffffff 4 800] ------- [4:255 12:255 32 0] 2 [1 2] [0 2 0 0->0] [0 0 0 0->0]
s 5.045714286 _7_ AGT  --- 77 cbr 512 [0 0 0 0] ------- [7:0 11:0 32 0] [5] 0 0
r 5.045714286 _7_ RTR  --- 77 cbr 512 [0 0 0 0] ------- [7:0 11:0 32 0] [5] 0 0
SFs 5.045714286 _7_ 77 [7 -> 11] 1(0) to 11 
s 5.045714286 _6_ AGT  --- 78 cbr 512 [0 0 0 0] ------- [6:0 5:0 32 0] [5] 0 0
r 5.045714286 _6_ RTR  --- 78 cbr 512 [0 0 0 0] ------- [6:0 5:0 32 0] [5] 0 0
s 5.045714286 _10_ AGT  --- 80 cbr 512 [0 0 0 0] ------- [10:0 0:0 32 0] [5] 0 0
r 5.045714286 _10_ RTR  --- 80 cbr 512 [0 0 0 0] ------- [10:0 0:0 32 0] [5] 0 0
s 5.045714286 _4_ AGT  --- 82 cbr 512 [0 0 0 0] ------- [4:0 12:0 32 0] [5] 0 0
r 5.045714286 _4_ RTR  --- 82 cbr 512 [0 0 0 0] ------- [4:0 12:0 32 0] [5] 0 0
s 5.045714286 _1_ AGT  --- 84 cbr 512 [0 0 0 0] ------- [1:0 13:0 32 0] [5] 0 0
r 5.045714286 _1_ RTR  --- 84 cbr 512 [0 0 0 0] ------- [1:0 13:0 32 0] [5] 0 0
s 5.045714286 _2_ AGT  --- 86 cbr 512 [0 0 0 0] ------- [2:0 3:0 32 0] [5] 0 0
r 5.045714286 _2_ RTR  --- 86 cbr 512 [0 0 0 0] ------- [2:0 3:0 32 0] [5] 0 0
s 5.045714286 _9_ AGT  --- 88 cbr 512 [0 0 0 0] ------- [9:0 8:0 32 0] [5] 0 0
r 5.045714286 _9_ RTR  --- 88 cbr 512 [0 0 0 0] ------- [9:0 8:0 32 0] [5] 0 0
s 5.045714286 _7_ RTR  --- 77 cbr 532 [0 0 0 0] ------- [7:0 11:0 32 11] [5] 0 0
r 5.045745916 _7_ RTR  --- 74 DSR 32 [0 ffffffff 2 800] ------- [2:255 3:255 32 0] 1 [1 2] [0 2 0 0->0] [0 0 0 0->0]
r 5.045745990 _12_ RTR  --- 74 DSR 32 [0 ffffffff 2 800] ------- [2:255 3:255 32 0] 1 [1 2] [0 2 0 0->0] [0 0 0 0->0]
r 5.045746040 _1_ RTR  --- 74 DSR 32 [0 ffffffff 2 800] ------- [2:255 3:255 32 0] 1 [1 2] [0 2 0 0->0] [0 0 0 0->0]
r 5.045746154 _3_ RTR  --- 74 DSR 32 [0 ffffffff 2 800] ------- [2:255 3:255 32 0] 1 [1 2] [0 2 0 0->0] [0 0 0 0->0]
r 5.045746277 _4_ RTR  --- 74 DSR 32 [0 ffffffff 2 800] ------- [2:255 3:255 32 0] 1 [1 2] [0 2 0 0->0] [0 0 0 0->0]
f 5.046561164 _5_ RTR  --- 70 DSR 48 [0 ffffffff 4 800] ------- [4:255 12:255 32 0] 2 [1 2] [0 2 0 0->0] [0 0 0 0->0]
f 5.046735097 _2_ RTR  --- 70 DSR 48 [0 ffffffff 4 800] ------- [4:255 12:255 32 0] 2 [1 2] [0 2 0 0->0] [0 0 0 0->0]
f 5.047188634 _2_ RTR  --- 72 DSR 48 [0 ffffffff 1 800] ------- [1:255 13:255 32 0] 2 [1 2] [0 2 0 0->0] [0 0 0 0->0]
f 5.047459911 _8_ RTR  --- 72 DSR 48 [0 ffffffff 1 800] ------- [1:255 13:255 32 0] 2 [1 2] [0 2 0 0->0] [0 0 0 0->0]
f 5.047826020 _11_ RTR  --- 70 DSR 48 [0 ffffffff 4 800] ------- [4:255 12:255 32 0] 2 [1 2] [0 2 0 0->0] [0 0 0 0->0]
s 5.048093347 _7_ RTR  --- 16 cbr 548 [0 0 0 0] ------- [7:0 11:0 32 11] [1] 0 0
r 5.051212381 _11_ RTR  --- 77 cbr 532 [13a b 7 800] ------- [7:0 11:0 32 11] [5] 1 0
r 5.051212381 _11_ AGT  --- 77 cbr 512 [13a b 7 800] ------- [7:0 11:0 32 11] [5] 1 0
f 5.051378586 _1_ RTR  --- 70 DSR 48 [0 ffffffff 4 800] ------- [4:255 12:255 32 0] 2 [1 2] [0 2 0 0->0] [0 0 0 0->0]
f 5.051436513 _12_ RTR  --- 74 DSR 48 [0 ffffffff 2 800] ------- [2:255 3:255 32 0] 2 [1 2] [0 2 0 0->0] [0 0 0 0->0]
f 5.052181787 _11_ RTR  --- 72 DSR 48 [0 ffffffff 1 800] ------- [1:255 13:255 32 0] 2 [1 2] [0 2 0 0->0] [0 0 0 0->0]
f 5.052369956 _7_ RTR  --- 70 DSR 48 [0 ffffffff 4 800] ------- [4:255 12:255 32 0] 2 [1 2] [0 2 0 0->0] [0 0 0 0->0]
r 5.052584690 _9_ RTR  --- 70 DSR 48 [0 ffffffff b 800] ------- [4:255 12:255 32 0] 2 [1 2] [0 2 0 0->0] [0 0 0 0->0]
r 5.052584718 _0_ RTR  --- 70 DSR 48 [0 ffffffff b 800] ------- [4:255 12:255 32 0] 2 [1 2] [0 2 0 0->0] [0 0 0 0->0]
r 5.052584778 _5_ RTR  --- 70 DSR 48 [0 ffffffff b 800] ------- [4:255 12:255 32 0] 2 [1 2] [0 2 0 0->0] [0 0 0 0->0]
r 5.052584957 _6_ RTR  --- 70 DSR 48 [0 ffffffff b 800] ------- [4:255 12:255 32 0] 2 [1 2] [0 2 0 0->0] [0 0 0 0->0]
r 5.052584986 _8_ RTR  --- 70 DSR 48 [0 ffffffff b 800] ------- [4:255 12:255 32 0] 2 [1 2] [0 2 0 0->0] [0 0 0 0->0]
r 5.052585080 _7_ RTR  --- 70 DSR 48 [0 ffffffff b 800] ------- [4:255 12:255 32 0] 2 [1 2] [0 2 0 0->0] [0 0 0 0->0]
r 5.052585147 _4_ RTR  --- 70 DSR 48 [0 ffffffff b 800] ------- [4:255 12:255 32 0] 2 [1 2] [0 2 0 0->0] [0 0 0 0->0]
r 5.052585192 _1_ RTR  --- 70 DSR 48 [0 ffffffff b 800] ------- [4:255 12:255 32 0] 2 [1 2] [0 2 0 0->0] [0 0 0 0->0]
f 5.052971661 _7_ RTR  --- 72 DSR 48 [0 ffffffff 1 800] ------- [1:255 13:255 32 0] 2 [1 2] [0 2 0 0->0] [0 0 0 0->0]
f 5.053039629 _1_ RTR  --- 74 DSR 48 [0 ffffffff 2 800] ------- [2:255 3:255 32 0] 2 [1 2] [0 2 0 0->0] [0 0 0 0->0]
r 5.053374743 _0_ RTR  --- 76 DSR 32 [0 ffffffff 9 800] ------- [9:255 8:255 32 0] 1 [1 2] [0 2 0 0->0] [0 0 0 0->0]
r 5.053374999 _11_ RTR  --- 76 DSR 32 [0 ffffffff 9 800] ------- [9:255 8:255 32 0] 1 [1 2] [0 2 0 0->0] [0 0 0 0->0]
r 5.053375086 _6_ RTR  --- 76 DSR 32 [0 ffffffff 9 800] ------- [9:255 8:255 32 0] 1 [1 2] [0 2 0 0->0] [0 0 0 0->0]
r 5.053375288 _5_ RTR  --- 76 DSR 32 [0 ffffffff 9 800] ------- [9:255 8:255 32 0] 1 [1 2] [0 2 0 0->0] [0 0 0 0->0]
r 5.053375523 _10_ RTR  --- 76 DSR 32 [0 ffffffff 9 800] ------- [9:255 8:255 32 0] 1 [1 2] [0 2 0 0->0] [0 0 0 0->0]
f 5.053655406 _4_ RTR  --- 72 DSR 48 [0 ffffffff 1 800] ------- [1:255 13:255 32 0] 2 [1 2] [0 2 0 0->0] [0 0 0 0->0]
f 5.053837376 _7_ RTR  --- 74 DSR 48 [0 ffffffff 2 800] ------- [2:255 3:255 32 0] 2 [1 2] [0 2 0 0->0] [0 0 0 0->0]
r 5.054333308 _9_ RTR  --- 72 DSR 48 [0 ffffffff b 800] ------- [1:255 13:255 32 0] 2 [1 2] [0 2 0 0->0] [0 0 0 0->0]
r 5.054333336 _0_ RTR  --- 72 DSR 48 [0 ffffffff b 800] ------- [1:255 13:255 32 0] 2 [1 2] [0 2 0 0->0] [0 0 0 0->0]
r 5.054333396 _5_ RTR  --- 72 DSR 48 [0 ffffffff b 800] ------- [1:255 13:255 32 0] 2 [1 2] [0 2 0 0->0] [0 0 0 0->0]
r 5.054333574 _6_ RTR  --- 72 DSR 48 [0 ffffffff b 800] ------- [1:255 13:255 32 0] 2 [1 2] [0 2 0 0->0] [0 0 0 0->0]
r 5.054333604 _8_ RTR  --- 72 DSR 48 [0 ffffffff b 800] ------- [1:255 13:255 32 0] 2 [1 2] [0 2 0 0->0] [0 0 0 0->0]
r 5.054333697 _7_ RTR  --- 72 DSR 48 [0 ffffffff b 800] ------- [1:255 13:255 32 0] 2 [1 2] [0 2 0 0->0] [0 0 0 0->0]
r 5.054333764 _4_ RTR  --- 72 DSR 48 [0 ffffffff b 800] ------- [1:255 13:255 32 0] 2 [1 2] [0 2 0 0->0] [0 0 0 0->0]
r 5.054333809 _1_ RTR  --- 72 DSR 48 [0 ffffffff b 800] ------- [1:255 13:255 32 0] 2 [1 2] [0 2 0 0->0] [0 0 0 0->0]
f 5.054568163 _4_ RTR  --- 74 DSR 48 [0 ffffffff 2 800] ------- [2:255 3:255 32 0] 2 [1 2] [0 2 0 0->0] [0 0 0 0->0]
f 5.054605934 _0_ RTR  --- 72 DSR 68 [0 ffffffff b 800] ------- [1:255 13:255 32 0] 3 [1 2] [0 2 0 0->0] [0 0 0 0->0]
s 5.054857143 _7_ AGT  --- 121 cbr 512 [0 0 0 0] ------- [7:0 11:0 32 0] [6] 0 0
r 5.054857143 _7_ RTR  --- 121 cbr 512 [0 0 0 0] ------- [7:0 11:0 32 0] [6] 0 0
SFs 5.054857143 _7_ 121 [7 -> 11] 1(0) to 11 
s 5.054857143 _6_ AGT  --- 122 cbr 512 [0 0 0 0] ------- [6:0 5:0 32 0] [6] 0 0
r 5.054857143 _6_ RTR  --- 122 cbr 512 [0 0 0 0] ------- [6:0 5:0 32 0] [6] 0 0
s 5.054857143 _10_ AGT  --- 124 cbr 512 [0 0 0 0] ------- [10:0 0:0 32 0] [6] 0 0
r 5.054857143 _10_ RTR  --- 124 cbr 512 [0 0 0 0] ------- [10:0 0:0 32 0] [6] 0 0
s 5.054857143 _4_ AGT  --- 126 cbr 512 [0 0 0 0] ------- [4:0 12:0 32 0] [6] 0 0
r 5.054857143 _4_ RTR  --- 126 cbr 512 [0 0 0 0] ------- [4:0 12:0 32 0] [6] 0 0
s 5.054857143 _1_ AGT  --- 128 cbr 512 [0 0 0 0] ------- [1:0 13:0 32 0] [6] 0 0
r 5.054857143 _1_ RTR  --- 128 cbr 512 [0 0 0 0] ------- [1:0 13:0 32 0] [6] 0 0
s 5.054857143 _2_ AGT  --- 130 cbr 512 [0 0 0 0] ------- [2:0 3:0 32 0] [6] 0 0
r 5.054857143 _2_ RTR  --- 130 cbr 512 [0 0 0 0] ------- [2:0 3:0 32 0] [6] 0 0
s 5.054857143 _9_ AGT  --- 132 cbr 512 [0 0 0 0] ------- [9:0 8:0 32 0] [6] 0 0
r 5.054857143 _9_ RTR  --- 132 cbr 512 [0 0 0 0] ------- [9:0 8:0 32 0] [6] 0 0
s 5.054857143 _7_ RTR  --- 121 cbr 532 [0 0 0 0] ------- [7:0 11:0 32 11] [6] 0 0
r 5.055232008 _1_ RTR  --- 72 DSR 48 [0 ffffffff 4 800] ------- [1:255 13:255 32 0] 2 [1 2] [0 2 0 0->0] [0 0 0 0->0]
r 5.055232172 _8_ RTR  --- 72 DSR 48 [0 ffffffff 4 800] ------- [1:255 13:255 32 0] 2 [1 2] [0 2 0 0->0] [0 0 0 0->0]
r 5.055232456 _5_ RTR  --- 72 DSR 48 [0 ffffffff 4 800] ------- [1:255 13:255 32 0] 2 [1 2] [0 2 0 0->0] [0 0 0 0->0]
r 5.055232457 _2_ RTR  --- 72 DSR 48 [0 ffffffff 4 800] ------- [1:255 13:255 32 0] 2 [1 2] [0 2 0 0->0] [0 0 0 0->0]
r 5.055232520 _7_ RTR  --- 72 DSR 48 [0 ffffffff 4 800] ------- [1:255 13:255 32 0] 2 [1 2] [0 2 0 0->0] [0 0 0 0->0]
r 5.055232529 _11_ RTR  --- 72 DSR 48 [0 ffffffff 4 800] ------- [1:255 13:255 32 0] 2 [1 2] [0 2 0 0->0] [0 0 0 0->0]
s 5.055371277 _3_ RTR  --- 90 DSR 44 [0 0 0 0] ------- [3:255 2:255 254 2] 2 [0 2] [1 2 2 2->3] [0 0 0 0->0]
D 5.055371277 _3_ IFQ  ARP 32 DSR 44 [0 0 3 800] ------- [3:255 2:255 254 2] 2 [0 1] [1 1 2 2->3] [0 0 0 0->0]
r 5.056150252 _4_ RTR  --- 70 DSR 48 [0 ffffffff 1 800] ------- [4:255 12:255 32 0] 2 [1 2] [0 2 0 0->0] [0 0 0 0->0]
r 5.056150464 _2_ RTR  --- 70 DSR 48 [0 ffffffff 1 800] ------- [4:255 12:255 32 0] 2 [1 2] [0 2 0 0->0] [0 0 0 0->0]
r 5.056150589 _7_ RTR  --- 70 DSR 48 [0 ffffffff 1 800] ------- [4:255 12:255 32 0] 2 [1 2] [0 2 0 0->0] [0 0 0 0->0]
r 5.056150630 _8_ RTR  --- 70 DSR 48 [0 ffffffff 1 800] ------- [4:255 12:255 32 0] 2 [1 2] [0 2 0 0->0] [0 0 0 0->0]
r 5.056150819 _11_ RTR  --- 70 DSR 48 [0 ffffffff 1 800] ------- [4:255 12:255 32 0] 2 [1 2] [0 2 0 0->0] [0 0 0 0->0]
r 5.057088972 _5_ RTR  --- 70 DSR 48 [0 ffffffff 8 800] ------- [4:255 12:255 32 0] 2 [1 2] [0 2 0 0->0] [0 0 0 0->0]
r 5.057089038 _4_ RTR  --- 70 DSR 48 [0 ffffffff 8 800] ------- [4:255 12:255 32 0] 2 [1 2] [0 2 0 0->0] [0 0 0 0->0]
r 5.057089235 _11_ RTR  --- 70 DSR 48 [0 ffffffff 8 800] ------- [4:255 12:255 32 0] 2 [1 2] [0 2 0 0->0] [0 0 0 0->0]
r 5.057089252 _1_ RTR  --- 70 DSR 48 [0 ffffffff 8 800] ------- [4:255 12:255 32 0] 2 [1 2] [0 2 0 0->0] [0 0 0 0->0]
f 5.057091224 _6_ RTR  --- 72 DSR 68 [0 ffffffff b 800] ------- [1:255 13:255 32 0] 3 [1 2] [0 2 0 0->0] [0 0 0 0->0]
f 5.057135517 _5_ RTR  --- 72 DSR 68 [0 ffffffff b 800] ------- [1:255 13:255 32 0] 3 [1 2] [0 2 0 0->0] [0 0 0 0->0]
f 5.057268297 _9_ RTR  --- 70 DSR 68 [0 ffffffff b 800] ------- [4:255 12:255 32 0] 3 [1 2] [0 2 0 0->0] [0 0 0 0->0]
f 5.057339437 _6_ RTR  --- 76 DSR 48 [0 ffffffff 9 800] ------- [9:255 8:255 32 0] 2 [1 2] [0 2 0 0->0] [0 0 0 0->0]
f 5.057812348 _9_ RTR  --- 72 DSR 68 [0 ffffffff b 800] ------- [1:255 13:255 32 0] 3 [1 2] [0 2 0 0->0] [0 0 0 0->0]
f 5.057920974 _5_ RTR  --- 76 DSR 48 [0 ffffffff 9 800] ------- [9:255 8:255 32 0] 2 [1 2] [0 2 0 0->0] [0 0 0 0->0]
r 5.058027282 _1_ RTR  --- 74 DSR 48 [0 ffffffff 4 800] ------- [2:255 3:255 32 0] 2 [1 2] [0 2 0 0->0] [0 0 0 0->0]
r 5.058027446 _8_ RTR  --- 74 DSR 48 [0 ffffffff 4 800] ------- [2:255 3:255 32 0] 2 [1 2] [0 2 0 0->0] [0 0 0 0->0]
r 5.058027730 _5_ RTR  --- 74 DSR 48 [0 ffffffff 4 800] ------- [2:255 3:255 32 0] 2 [1 2] [0 2 0 0->0] [0 0 0 0->0]
r 5.058027731 _2_ RTR  --- 74 DSR 48 [0 ffffffff 4 800] ------- [2:255 3:255 32 0] 2 [1 2] [0 2 0 0->0] [0 0 0 0->0]
r 5.058027794 _7_ RTR  --- 74 DSR 48 [0 ffffffff 4 800] ------- [2:255 3:255 32 0] 2 [1 2] [0 2 0 0->0] [0 0 0 0->0]
r 5.058027803 _11_ RTR  --- 74 DSR 48 [0 ffffffff 4 800] ------- [2:255 3:255 32 0] 2 [1 2] [0 2 0 0->0] [0 0 0 0->0]
f 5.058168951 _5_ RTR  --- 74 DSR 68 [0 ffffffff 4 800] ------- [2:255 3:255 32 0] 3 [1 2] [0 2 0 0->0] [0 0 0 0->0]
r 5.059006063 _7_ RTR  --- 70 DSR 48 [0 ffffffff 2 800] ------- [4:255 12:255 32 0] 2 [1 2] [0 2 0 0->0] [0 0 0 0->0]
r 5.059006071 _8_ RTR  --- 70 DSR 48 [0 ffffffff 5 800] ------- [4:255 12:255 32 0] 2 [1 2] [0 2 0 0->0] [0 0 0 0->0]
r 5.059006127 _11_ RTR  --- 70 DSR 48 [0 ffffffff 5 800] ------- [4:255 12:255 32 0] 2 [1 2] [0 2 0 0->0] [0 0 0 0->0]
r 5.059006137 _12_ RTR  --- 70 DSR 48 [0 ffffffff 2 800] ------- [4:255 12:255 32 0] 2 [1 2] [0 2 0 0->0] [0 0 0 0->0]
r 5.059006186 _1_ RTR  --- 70 DSR 48 [0 ffffffff 2 800] ------- [4:255 12:255 32 0] 2 [1 2] [0 2 0 0->0] [0 0 0 0->0]
r 5.059006300 _3_ RTR  --- 70 DSR 48 [0 ffffffff 2 800] ------- [4:255 12:255 32 0] 2 [1 2] [0 2 0 0->0] [0 0 0 0->0]
r 5.059006322 _0_ RTR  --- 70 DSR 48 [0 ffffffff 5 800] ------- [4:255 12:255 32 0] 2 [1 2] [0 2 0 0->0] [0 0 0 0->0]
r 5.059006328 _9_ RTR  --- 70 DSR 48 [0 ffffffff 5 800] ------- [4:255 12:255 32 0] 2 [1 2] [0 2 0 0->0] [0 0 0 0->0]
s 5.059506165 _12_ RTR  --- 134 DSR 52 [0 0 0 0] ------- [12:255 4:255 254 2] 3 [0 2] [1 2 3 4->12] [0 0 0 0->0]
f 5.059576631 _0_ RTR  --- 70 DSR 68 [0 ffffffff b 800] ------- [4:255 12:255 32 0] 3 [1 2] [0 2 0 0->0] [0 0 0 0->0]
r 5.060528964 _0_ RTR  --- 70 DSR 68 [0 ffffffff 9 800] ------- [4:255 12:255 32 0] 3 [1 2] [0 2 0 0->0] [0 0 0 0->0]
r 5.060529221 _11_ RTR  --- 70 DSR 68 [0 ffffffff 9 800] ------- [4:255 12:255 32 0] 3 [1 2] [0 2 0 0->0] [0 0 0 0->0]
r 5.060529308 _6_ RTR  --- 70 DSR 68 [0 ffffffff 9 800] ------- [4:255 12:255 32 0] 3 [1 2] [0 2 0 0->0] [0 0 0 0->0]
r 5.060529510 _5_ RTR  --- 70 DSR 68 [0 ffffffff 9 800] ------- [4:255 12:255 32 0] 3 [1 2] [0 2 0 0->0] [0 0 0 0->0]
r 5.060529744 _10_ RTR  --- 70 DSR 68 [0 ffffffff 9 800] ------- [4:255 12:255 32 0] 3 [1 2] [0 2 0 0->0] [0 0 0 0->0]
f 5.061119153 _11_ RTR  --- 76 DSR 48 [0 ffffffff 9 800] ------- [9:255 8:255 32 0] 2 [1 2] [0 2 0 0->0] [0 0 0 0->0]
r 5.061320142 _13_ RTR  --- 68 DSR 32 [0 ffffffff a 800] ------- [10:255 0:255 32 0] 1 [1 2] [0 2 0 0->0] [0 0 0 0->0]
f 5.061320144 _10_ RTR  --- 76 DSR 48 [0 ffffffff 9 800] ------- [9:255 8:255 32 0] 2 [1 2] [0 2 0 0->0] [0 0 0 0->0]
r 5.061320223 _6_ RTR  --- 68 DSR 32 [0 ffffffff a 800] ------- [10:255 0:255 32 0] 1 [1 2] [0 2 0 0->0] [0 0 0 0->0]
r 5.061320273 _3_ RTR  --- 68 DSR 32 [0 ffffffff a 800] ------- [10:255 0:255 32 0] 1 [1 2] [0 2 0 0->0] [0 0 0 0->0]
r 5.061320410 _7_ RTR  --- 68 DSR 32 [0 ffffffff a 800] ------- [10:255 0:255 32 0] 1 [1 2] [0 2 0 0->0] [0 0 0 0->0]
r 5.061320577 _9_ RTR  --- 68 DSR 32 [0 ffffffff a 800] ------- [10:255 0:255 32 0] 1 [1 2] [0 2 0 0->0] [0 0 0 0->0]
f 5.061335736 _11_ RTR  --- 74 DSR 68 [0 ffffffff 4 800] ------- [2:255 3:255 32 0] 3 [1 2] [0 2 0 0->0] [0 0 0 0->0]
f 5.061722263 _0_ RTR  --- 76 DSR 48 [0 ffffffff 9 800] ------- [9:255 8:255 32 0] 2 [1 2] [0 2 0 0->0] [0 0 0 0->0]
f 5.061939006 _6_ RTR  --- 70 DSR 68 [0 ffffffff b 800] ------- [4:255 12:255 32 0] 3 [1 2] [0 2 0 0->0] [0 0 0 0->0]
f 5.063881507 _3_ RTR  --- 70 DSR 68 [0 ffffffff 2 800] ------- [4:255 12:255 32 0] 3 [1 2] [0 2 0 0->0] [0 0 0 0->0]
s 5.064000000 _7_ AGT  --- 135 cbr 512 [0 0 0 0] ------- [7:0 11:0 32 0] [7] 0 0
r 5.064000000 _7_ RTR  --- 135 cbr 512 [0 0 0 0] ------- [7:0 11:0 32 0] [7] 0 0
SFs 5.064000000 _7_ 135 [7 -> 11] 1(0) to 11 
s 5.064000000 _6_ AGT  --- 136 cbr 512 [0 0 0 0] ------- [6:0 5:0 32 0] [7] 0 0