n -t * -s 0  -x 338 -y 410 -Z 0 -z 20  -v circle -c black
n -t * -s 1  -x 31 -y 255 -Z 0 -z 20  -v circle -c black
n -t * -s 2  -x 94 -y 133 -Z 0 -z 20  -v circle -c black
n -t * -s 3  -x 250 -y 64 -Z 0 -z 20  -v circle -c black
n -t * -s 4  -x 18 -y 327 -Z 0 -z 20  -v circle -c black
n -t * -s 5  -x 170 -y 469 -Z 0 -z 20  -v circle -c black
n -t * -s 6  -x 395 -y 293 -Z 0 -z 20  -v circle -c black
n -t * -s 7  -x 185 -y 173 -Z 0 -z 20  -v circle -c black
n -t * -s 8  -x 72 -y 437 -Z 0 -z 20  -v circle -c black
n -t * -s 9  -x 333 -y 395 -Z 0 -z 20  -v circle -c black
n -t * -s 10  -x 384 -y 150 -Z 0 -z 20  -v circle -c black
n -t * -s 11  -x 243 -y 375 -Z 0 -z 20  -v circle -c black
n -t * -s 12  -x 120 -y 14 -Z 0 -z 20  -v circle -c black
n -t * -s 13  -x 492 -y 99 -Z 0 -z 20  -v circle -c black
V -t * -v 1.0a5 -a 0
W -t * -x 500 -y 500
A -t * -n 1 -p 0 -o 0x7fffffff -c 30 -a 1
A -t * -h 1 -m 1073741823 -s 0
n -t 0 -s 0 -S DLABEL -l "Source01" -L ""
n -t 0 -s 1 -S DLABEL -l "Source02" -L ""
n -t 0 -s 2 -S DLABEL -l "Sink01" -L ""
n -t 0 -s 3 -S DLABEL -l "Sink02" -L ""
n -t 0 -s 5 -S DLABEL -l "N5" -L ""
n -t 0 -s 6 -S DLABEL -l "N6" -L ""
n -t 0 -s 7 -S DLABEL -l "N7" -L ""
n -t 0 -s 8 -S DLABEL -l "N8" -L ""
n -t 0 -s 9 -S DLABEL -l "N9" -L ""
n -t 0 -s 10 -S DLABEL -l "N10" -L ""
n -t 0 -s 11 -S DLABEL -l "N11" -L ""
n -t 0 -s 12 -S DLABEL -l "N12" -L ""
n -t 0 -s 13 -S DLABEL -l "N13" -L ""
n -t 5.000000 -s 0 -x 338.000000 -y 410.000000 -U -6.895677 -V -1.204007 -T 18.272317
n -t 5.000000 -s 1 -x 31.000000 -y 255.000000 -U 5.794713 -V -3.926996 -T 41.762203
n -t 5.000000 -s 2 -x 94.000000 -y 133.000000 -U 0.359653 -V 6.990755 -T 44.487329
n -t 5.000000 -s 3 -x 250.000000 -y 64.000000 -U 5.396191 -V 4.458825 -T 39.472284
n -t 5.000000 -s 4 -x 18.000000 -y 327.000000 -U 6.602843 -V -2.324319 -T 67.546658
n -t 5.000000 -s 5 -x 170.000000 -y 469.000000 -U -3.955623 -V -5.775210 -T 37.920701
n -t 5.000000 -s 6 -x 395.000000 -y 293.000000 -U 3.081101 -V 6.285445 -T 16.227968
n -t 5.000000 -s 7 -x 185.000000 -y 173.000000 -U 4.959095 -V 4.940382 -T 53.437165
n -t 5.000000 -s 8 -x 72.000000 -y 437.000000 -U 5.635931 -V -4.151659 -T 46.487435
n -t 5.000000 -s 9 -x 333.000000 -y 395.000000 -U 5.864012 -V -3.822742 -T 26.944008
n -t 5.000000 -s 10 -x 384.000000 -y 150.000000 -U -6.619806 -V 2.275558 -T 24.169892
n -t 5.000000 -s 11 -x 243.000000 -y 375.000000 -U -2.273525 -V -6.620505 -T 54.980702
n -t 5.000000 -s 12 -x 120.000000 -y 14.000000 -U -2.196018 -V 6.646616 -T 34.152718
n -t 5.000000 -s 13 -x 492.000000 -y 99.000000 -U -6.007517 -V 3.593013 -T 34.789747
+ -t 5.000000000 -s 7 -d -1 -p cbr -e 512 -c 2 -a 0 -i 0 -k AGT 
- -t 5.000000000 -s 7 -d -1 -p cbr -e 512 -c 2 -a 0 -i 0 -k AGT
h -t 5.000000000 -s 7 -d -1 -p cbr -e 512 -c 2 -a 0 -i 0 -k AGT
+ -t 5.000000000 -s 6 -d -1 -p cbr -e 512 -c 2 -a 0 -i 2 -k AGT 
- -t 5.000000000 -s 6 -d -1 -p cbr -e 512 -c 2 -a 0 -i 2 -k AGT
h -t 5.000000000 -s 6 -d -1 -p cbr -e 512 -c 2 -a 0 -i 2 -k AGT
+ -t 5.000000000 -s 10 -d -1 -p cbr -e 512 -c 2 -a 0 -i 4 -k AGT 
- -t 5.000000000 -s 10 -d -1 -p cbr -e 512 -c 2 -a 0 -i 4 -k AGT
h -t 5.000000000 -s 10 -d -1 -p cbr -e 512 -c 2 -a 0 -i 4 -k AGT
+ -t 5.000000000 -s 4 -d -1 -p cbr -e 512 -c 2 -a 0 -i 6 -k AGT 
- -t 5.000000000 -s 4 -d -1 -p cbr -e 512 -c 2 -a 0 -i 6 -k AGT
h -t 5.000000000 -s 4 -d -1 -p cbr -e 512 -c 2 -a 0 -i 6 -k AGT
+ -t 5.000000000 -s 1 -d -1 -p cbr -e 512 -c 2 -a 0 -i 8 -k AGT 
- -t 5.000000000 -s 1 -d -1 -p cbr -e 512 -c 2 -a 0 -i 8 -k AGT
h -t 5.000000000 -s 1 -d -1 -p cbr -e 512 -c 2 -a 0 -i 8 -k AGT
+ -t 5.000000000 -s 2 -d -1 -p cbr -e 512 -c 2 -a 0 -i 10 -k AGT 
- -t 5.000000000 -s 2 -d -1 -p cbr -e 512 -c 2 -a 0 -i 10 -k AGT
h -t 5.000000000 -s 2 -d -1 -p cbr -e 512 -c 2 -a 0 -i 10 -k AGT
+ -t 5.000000000 -s 9 -d -1 -p cbr -e 512 -c 2 -a 0 -i 12 -k AGT 
- -t 5.000000000 -s 9 -d -1 -p cbr -e 512 -c 2 -a 0 -i 12 -k AGT
h -t 5.000000000 -s 9 -d -1 -p cbr -e 512 -c 2 -a 0 -i 12 -k AGT
+ -t 5.001020609 -s 9 -d -1 -p DSR -e 32 -c 2 -a 0 -i 13 -k RTR 
- -t 5.001020609 -s 9 -d -1 -p DSR -e 32 -c 2 -a 0 -i 13 -k RTR
h -t 5.001020609 -s 9 -d -1 -p DSR -e 32 -c 2 -a 0 -i 13 -k RTR
+ -t 5.001062646 -s 4 -d -1 -p DSR -e 32 -c 2 -a 0 -i 7 -k RTR 
- -t 5.001062646 -s 4 -d -1 -p DSR -e 32 -c 2 -a 0 -i 7 -k RTR
h -t 5.001062646 -s 4 -d -1 -p DSR -e 32 -c 2 -a 0 -i 7 -k RTR
+ -t 5.002356581 -s 10 -d -1 -p DSR -e 32 -c 2 -a 0 -i 5 -k RTR 
- -t 5.002356581 -s 10 -d -1 -p DSR -e 32 -c 2 -a 0 -i 5 -k RTR
h -t 5.002356581 -s 10 -d -1 -p DSR -e 32 -c 2 -a 0 -i 5 -k RTR
+ -t 5.002771051 -s 7 -d -1 -p DSR -e 32 -c 2 -a 0 -i 1 -k RTR 
- -t 5.002771051 -s 7 -d -1 -p DSR -e 32 -c 2 -a 0 -i 1 -k RTR
h -t 5.002771051 -s 7 -d -1 -p DSR -e 32 -c 2 -a 0 -i 1 -k RTR
+ -t 5.003775053 -s 1 -d -1 -p DSR -e 32 -c 2 -a 0 -i 9 -k RTR 
- -t 5.003775053 -s 1 -d -1 -p DSR -e 32 -c 2 -a 0 -i 9 -k RTR
h -t 5.003775053 -s 1 -d -1 -p DSR -e 32 -c 2 -a 0 -i 9 -k RTR
+ -t 5.006244338 -s 6 -d -1 -p DSR -e 32 -c 2 -a 0 -i 3 -k RTR 
- -t 5.006244338 -s 6 -d -1 -p DSR -e 32 -c 2 -a 0 -i 3 -k RTR
h -t 5.006244338 -s 6 -d -1 -p DSR -e 32 -c 2 -a 0 -i 3 -k RTR
+ -t 5.009142857 -s 7 -d -1 -p cbr -e 512 -c 2 -a 0 -i 16 -k AGT 
- -t 5.009142857 -s 7 -d -1 -p cbr -e 512 -c 2 -a 0 -i 16 -k AGT
h -t 5.009142857 -s 7 -d -1 -p cbr -e 512 -c 2 -a 0 -i 16 -k AGT
+ -t 5.009142857 -s 6 -d -1 -p cbr -e 512 -c 2 -a 0 -i 18 -k AGT 
- -t 5.009142857 -s 6 -d -1 -p cbr -e 512 -c 2 -a 0 -i 18 -k AGT
h -t 5.009142857 -s 6 -d -1 -p cbr -e 512 -c 2 -a 0 -i 18 -k AGT
+ -t 5.009142857 -s 10 -d -1 -p cbr -e 512 -c 2 -a 0 -i 20 -k AGT 
- -t 5.009142857 -s 10 -d -1 -p cbr -e 512 -c 2 -a 0 -i 20 -k AGT
h -t 5.009142857 -s 10 -d -1 -p cbr -e 512 -c 2 -a 0 -i 20 -k AGT
+ -t 5.009142857 -s 4 -d -1 -p cbr -e 512 -c 2 -a 0 -i 22 -k AGT 
- -t 5.009142857 -s 4 -d -1 -p cbr -e 512 -c 2 -a 0 -i 22 -k AGT
h -t 5.009142857 -s 4 -d -1 -p cbr -e 512 -c 2 -a 0 -i 22 -k AGT
+ -t 5.009142857 -s 1 -d -1 -p cbr -e 512 -c 2 -a 0 -i 24 -k AGT 
- -t 5.009142857 -s 1 -d -1 -p cbr -e 512 -c 2 -a 0 -i 24 -k AGT
h -t 5.009142857 -s 1 -d -1 -p cbr -e 512 -c 2 -a 0 -i 24 -k AGT
+ -t 5.009142857 -s 2 -d -1 -p cbr -e 512 -c 2 -a 0 -i 26 -k AGT 
- -t 5.009142857 -s 2 -d -1 -p cbr -e 512 -c 2 -a 0 -i 26 -k AGT
h -t 5.009142857 -s 2 -d -1 -p cbr -e 512 -c 2 -a 0 -i 26 -k AGT
+ -t 5.009142857 -s 9 -d -1 -p cbr -e 512 -c 2 -a 0 -i 28 -k AGT 
- -t 5.009142857 -s 9 -d -1 -p cbr -e 512 -c 2 -a 0 -i 28 -k AGT
h -t 5.009142857 -s 9 -d -1 -p cbr -e 512 -c 2 -a 0 -i 28 -k AGT
+ -t 5.009292293 -s 2 -d -1 -p DSR -e 32 -c 2 -a 0 -i 11 -k RTR 
- -t 5.009292293 -s 2 -d -1 -p DSR -e 32 -c 2 -a 0 -i 11 -k RTR
h -t 5.009292293 -s 2 -d -1 -p DSR -e 32 -c 2 -a 0 -i 11 -k RTR
+ -t 5.013085448 -s 11 -d 7 -p DSR -e 44 -c 2 -a 0 -i 15 -k RTR 
- -t 5.013085448 -s 11 -d 7 -p DSR -e 44 -c 2 -a 0 -i 15 -k RTR
h -t 5.013085448 -s 11 -d 7 -p DSR -e 44 -c 2 -a 0 -i 15 -k RTR
+ -t 5.016639726 -s 3 -d 2 -p DSR -e 44 -c 2 -a 0 -i 32 -k RTR 
- -t 5.016639726 -s 3 -d 2 -p DSR -e 44 -c 2 -a 0 -i 32 -k RTR
h -t 5.016639726 -s 3 -d 2 -p DSR -e 44 -c 2 -a 0 -i 32 -k RTR
+ -t 5.018093347 -s 7 -d 11 -p cbr -e 548 -c 2 -a 0 -i 0 -k RTR 
- -t 5.018093347 -s 7 -d 11 -p cbr -e 548 -c 2 -a 0 -i 0 -k RTR
h -t 5.018093347 -s 7 -d 11 -p cbr -e 548 -c 2 -a 0 -i 0 -k RTR
+ -t 5.018285714 -s 7 -d -1 -p cbr -e 512 -c 2 -a 0 -i 35 -k AGT 
- -t 5.018285714 -s 7 -d -1 -p cbr -e 512 -c 2 -a 0 -i 35 -k AGT
h -t 5.018285714 -s 7 -d -1 -p cbr -e 512 -c 2 -a 0 -i 35 -k AGT
+ -t 5.018285714 -s 6 -d -1 -p cbr -e 512 -c 2 -a 0 -i 36 -k AGT 
- -t 5.018285714 -s 6 -d -1 -p cbr -e 512 -c 2 -a 0 -i 36 -k AGT
h -t 5.018285714 -s 6 -d -1 -p cbr -e 512 -c 2 -a 0 -i 36 -k AGT
+ -t 5.018285714 -s 10 -d -1 -p cbr -e 512 -c 2 -a 0 -i 38 -k AGT 
- -t 5.018285714 -s 10 -d -1 -p cbr -e 512 -c 2 -a 0 -i 38 -k AGT
h -t 5.018285714 -s 10 -d -1 -p cbr -e 512 -c 2 -a 0 -i 38 -k AGT
+ -t 5.018285714 -s 4 -d -1 -p cbr -e 512 -c 2 -a 0 -i 40 -k AGT 
- -t 5.018285714 -s 4 -d -1 -p cbr -e 512 -c 2 -a 0 -i 40 -k AGT
h -t 5.018285714 -s 4 -d -1 -p cbr -e 512 -c 2 -a 0 -i 40 -k AGT
+ -t 5.018285714 -s 1 -d -1 -p cbr -e 512 -c 2 -a 0 -i 42 -k AGT 
- -t 5.018285714 -s 1 -d -1 -p cbr -e 512 -c 2 -a 0 -i 42 -k AGT
h -t 5.018285714 -s 1 -d -1 -p cbr -e 512 -c 2 -a 0 -i 42 -k AGT
+ -t 5.018285714 -s 2 -d -1 -p cbr -e 512 -c 2 -a 0 -i 44 -k AGT 
- -t 5.018285714 -s 2 -d -1 -p cbr -e 512 -c 2 -a 0 -i 44 -k AGT
h -t 5.018285714 -s 2 -d -1 -p cbr -e 512 -c 2 -a 0 -i 44 -k AGT
+ -t 5.018285714 -s 9 -d -1 -p cbr -e 512 -c 2 -a 0 -i 46 -k AGT 
- -t 5.018285714 -s 9 -d -1 -p cbr -e 512 -c 2 -a 0 -i 46 -k AGT
h -t 5.018285714 -s 9 -d -1 -p cbr -e 512 -c 2 -a 0 -i 46 -k AGT
+ -t 5.018285714 -s 7 -d 11 -p cbr -e 548 -c 2 -a 0 -i 35 -k RTR 
- -t 5.018285714 -s 7 -d 11 -p cbr -e 548 -c 2 -a 0 -i 35 -k RTR
h -t 5.018285714 -s 7 -d 11 -p cbr -e 548 -c 2 -a 0 -i 35 -k RTR
r -t 5.024203447 -s 11 -d 11 -p cbr -e 512 -c 2 -a 0 -i 0 -k AGT
+ -t 5.027428571 -s 7 -d -1 -p cbr -e 512 -c 2 -a 0 -i 51 -k AGT 
- -t 5.027428571 -s 7 -d -1 -p cbr -e 512 -c 2 -a 0 -i 51 -k AGT
h -t 5.027428571 -s 7 -d -1 -p cbr -e 512 -c 2 -a 0 -i 51 -k AGT
+ -t 5.027428571 -s 6 -d -1 -p cbr -e 512 -c 2 -a 0 -i 52 -k AGT 
- -t 5.027428571 -s 6 -d -1 -p cbr -e 512 -c 2 -a 0 -i 52 -k AGT
h -t 5.027428571 -s 6 -d -1 -p cbr -e 512 -c 2 -a 0 -i 52 -k AGT
+ -t 5.027428571 -s 10 -d -1 -p cbr -e 512 -c 2 -a 0 -i 54 -k AGT 
- -t 5.027428571 -s 10 -d -1 -p cbr -e 512 -c 2 -a 0 -i 54 -k AGT
h -t 5.027428571 -s 10 -d -1 -p cbr -e 512 -c 2 -a 0 -i 54 -k AGT
+ -t 5.027428571 -s 4 -d -1 -p cbr -e 512 -c 2 -a 0 -i 56 -k AGT 
- -t 5.027428571 -s 4 -d -1 -p cbr -e 512 -c 2 -a 0 -i 56 -k AGT
h -t 5.027428571 -s 4 -d -1 -p cbr -e 512 -c 2 -a 0 -i 56 -k AGT
+ -t 5.027428571 -s 1 -d -1 -p cbr -e 512 -c 2 -a 0 -i 58 -k AGT 
- -t 5.027428571 -s 1 -d -1 -p cbr -e 512 -c 2 -a 0 -i 58 -k AGT
h -t 5.027428571 -s 1 -d -1 -p cbr -e 512 -c 2 -a 0 -i 58 -k AGT
+ -t 5.027428571 -s 2 -d -1 -p cbr -e 512 -c 2 -a 0 -i 60 -k AGT 
- -t 5.027428571 -s 2 -d -1 -p cbr -e 512 -c 2 -a 0 -i 60 -k AGT
h -t 5.027428571 -s 2 -d -1 -p cbr -e 512 -c 2 -a 0 -i 60 -k AGT
+ -t 5.027428571 -s 9 -d -1 -p cbr -e 512 -c 2 -a 0 -i 62 -k AGT 
- -t 5.027428571 -s 9 -d -1 -p cbr -e 512 -c 2 -a 0 -i 62 -k AGT
h -t 5.027428571 -s 9 -d -1 -p cbr -e 512 -c 2 -a 0 -i 62 -k AGT
+ -t 5.027428571 -s 7 -d 11 -p cbr -e 532 -c 2 -a 0 -i 51 -k RTR 
- -t 5.027428571 -s 7 -d 11 -p cbr -e 532 -c 2 -a 0 -i 51 -k RTR
h -t 5.027428571 -s 7 -d 11 -p cbr -e 532 -c 2 -a 0 -i 51 -k RTR
r -t 5.030434244 -s 11 -d 11 -p cbr -e 512 -c 2 -a 0 -i 35 -k AGT
+ -t 5.036571429 -s 7 -d -1 -p cbr -e 512 -c 2 -a 0 -i 64 -k AGT 
- -t 5.036571429 -s 7 -d -1 -p cbr -e 512 -c 2 -a 0 -i 64 -k AGT
h -t 5.036571429 -s 7 -d -1 -p cbr -e 512 -c 2 -a 0 -i 64 -k AGT
+ -t 5.036571429 -s 6 -d -1 -p cbr -e 512 -c 2 -a 0 -i 65 -k AGT 
- -t 5.036571429 -s 6 -d -1 -p cbr -e 512 -c 2 -a 0 -i 65 -k AGT
h -t 5.036571429 -s 6 -d -1 -p cbr -e 512 -c 2 -a 0 -i 65 -k AGT
+ -t 5.036571429 -s 10 -d -1 -p cbr -e 512 -c 2 -a 0 -i 67 -k AGT 
- -t 5.036571429 -s 10 -d -1 -p cbr -e 512 -c 2 -a 0 -i 67 -k AGT
h -t 5.036571429 -s 10 -d -1 -p cbr -e 512 -c 2 -a 0 -i 67 -k AGT
+ -t 5.036571429 -s 4 -d -1 -p cbr -e 512 -c 2 -a 0 -i 69 -k AGT 
- -t 5.036571429 -s 4 -d -1 -p cbr -e 512 -c 2 -a 0 -i 69 -k AGT
h -t 5.036571429 -s 4 -d -1 -p cbr -e 512 -c 2 -a 0 -i 69 -k AGT
+ -t 5.036571429 -s 1 -d -1 -p cbr -e 512 -c 2 -a 0 -i 71 -k AGT 
- -t 5.036571429 -s 1 -d -1 -p cbr -e 512 -c 2 -a 0 -i 71 -k AGT
h -t 5.036571429 -s 1 -d -1 -p cbr -e 512 -c 2 -a 0 -i 71 -k AGT
+ -t 5.036571429 -s 2 -d -1 -p cbr -e 512 -c 2 -a 0 -i 73 -k AGT 
- -t 5.036571429 -s 2 -d -1 -p cbr -e 512 -c 2 -a 0 -i 73 -k AGT
h -t 5.036571429 -s 2 -d -1 -p cbr -e 512 -c 2 -a 0 -i 73 -k AGT
+ -t 5.036571429 -s 9 -d -1 -p cbr -e 512 -c 2 -a 0 -i 75 -k AGT 
- -t 5.036571429 -s 9 -d -1 -p cbr -e 512 -c 2 -a 0 -i 75 -k AGT
h -t 5.036571429 -s 9 -d -1 -p cbr -e 512 -c 2 -a 0 -i 75 -k AGT
+ -t 5.036571429 -s 7 -d 11 -p cbr -e 532 -c 2 -a 0 -i 64 -k RTR 
- -t 5.036571429 -s 7 -d 11 -p cbr -e 532 -c 2 -a 0 -i 64 -k RTR
h -t 5.036571429 -s 7 -d 11 -p cbr -e 532 -c 2 -a 0 -i 64 -k RTR
r -t 5.036637041 -s 11 -d 11 -p cbr -e 512 -c 2 -a 0 -i 51 -k AGT
+ -t 5.039786142 -s 10 -d -1 -p DSR -e 32 -c 2 -a 0 -i 68 -k RTR 
- -t 5.039786142 -s 10 -d -1 -p DSR -e 32 -c 2 -a 0 -i 68 -k RTR
h -t 5.039786142 -s 10 -d -1 -p DSR -e 32 -c 2 -a 0 -i 68 -k RTR
+ -t 5.040505077 -s 9 -d -1 -p DSR -e 32 -c 2 -a 0 -i 76 -k RTR 
- -t 5.040505077 -s 9 -d -1 -p DSR -e 32 -c 2 -a 0 -i 76 -k RTR
h -t 5.040505077 -s 9 -d -1 -p DSR -e 32 -c 2 -a 0 -i 76 -k RTR
+ -t 5.040996818 -s 1 -d -1 -p DSR -e 32 -c 2 -a 0 -i 72 -k RTR 
- -t 5.040996818 -s 1 -d -1 -p DSR -e 32 -c 2 -a 0 -i 72 -k RTR
h -t 5.040996818 -s 1 -d -1 -p DSR -e 32 -c 2 -a 0 -i 72 -k RTR
+ -t 5.041133127 -s 4 -d -1 -p DSR -e 32 -c 2 -a 0 -i 70 -k RTR 
- -t 5.041133127 -s 4 -d -1 -p DSR -e 32 -c 2 -a 0 -i 70 -k RTR
h -t 5.041133127 -s 4 -d -1 -p DSR -e 32 -c 2 -a 0 -i 70 -k RTR
+ -t 5.042105639 -s 6 -d -1 -p DSR -e 32 -c 2 -a 0 -i 66 -k RTR 
- -t 5.042105639 -s 6 -d -1 -p DSR -e 32 -c 2 -a 0 -i 66 -k RTR
h -t 5.042105639 -s 6 -d -1 -p DSR -e 32 -c 2 -a 0 -i 66 -k RTR
+ -t 5.042788523 -s 2 -d -1 -p DSR -e 32 -c 2 -a 0 -i 74 -k RTR 
- -t 5.042788523 -s 2 -d -1 -p DSR -e 32 -c 2 -a 0 -i 74 -k RTR
h -t 5.042788523 -s 2 -d -1 -p DSR -e 32 -c 2 -a 0 -i 74 -k RTR
r -t 5.042839837 -s 11 -d 11 -p cbr -e 512 -c 2 -a 0 -i 64 -k AGT
+ -t 5.045538020 -s 8 -d -1 -p DSR -e 48 -c 2 -a 0 -i 70 -k RTR 
- -t 5.045538020 -s 8 -d -1 -p DSR -e 48 -c 2 -a 0 -i 70 -k RTR
h -t 5.045538020 -s 8 -d -1 -p DSR -e 48 -c 2 -a 0 -i 70 -k RTR
+ -t 5.045714286 -s 7 -d -1 -p cbr -e 512 -c 2 -a 0 -i 77 -k AGT 
- -t 5.045714286 -s 7 -d -1 -p cbr -e 512 -c 2 -a 0 -i 77 -k AGT
h -t 5.045714286 -s 7 -d -1 -p cbr -e 512 -c 2 -a 0 -i 77 -k AGT
+ -t 5.045714286 -s 6 -d -1 -p cbr -e 512 -c 2 -a 0 -i 78 -k AGT 
- -t 5.045714286 -s 6 -d -1 -p cbr -e 512 -c 2 -a 0 -i 78 -k AGT
h -t 5.045714286 -s 6 -d -1 -p cbr -e 512 -c 2 -a 0 -i 78 -k AGT
+ -t 5.045714286 -s 10 -d -1 -p cbr -e 512 -c 2 -a 0 -i 80 -k AGT 
- -t 5.045714286 -s 10 -d -1 -p cbr -e 512 -c 2 -a 0 -i 80 -k AGT
h -t 5.045714286 -s 10 -d -1 -p cbr -e 512 -c 2 -a 0 -i 80 -k AGT
+ -t 5.045714286 -s 4 -d -1 -p cbr -e 512 -c 2 -a 0 -i 82 -k AGT 
- -t 5.045714286 -s 4 -d -1 -p cbr -e 512 -c 2 -a 0 -i 82 -k AGT
h -t 5.045714286 -s 4 -d -1 -p cbr -e 512 -c 2 -a 0 -i 82 -k AGT
+ -t 5.045714286 -s 1 -d -1 -p cbr -e 512 -c 2 -a 0 -i 84 -k AGT 
- -t 5.045714286 -s 1 -d -1 -p cbr -e 512 -c 2 -a 0 -i 84 -k AGT
h -t 5.045714286 -s 1 -d -1 -p cbr -e 512 -c 2 -a 0 -i 84 -k AGT
+ -t 5.045714286 -s 2 -d -1 -p cbr -e 512 -c 2 -a 0 -i 86 -k AGT 
- -t 5.045714286 -s 2 -d -1 -p cbr -e 512 -c 2 -a 0 -i 86 -k AGT
h -t 5.045714286 -s 2 -d -1 -p cbr -e 512 -c 2 -a 0 -i 86 -k AGT
+ -t 5.045714286 -s 9 -d -1 -p cbr -e 512 -c 2 -a 0 -i 88 -k AGT 
- -t 5.045714286 -s 9 -d -1 -p cbr -e 512 -c 2 -a 0 -i 88 -k AGT
h -t 5.045714286 -s 9 -d -1 -p cbr -e 512 -c 2 -a 0 -i 88 -k AGT
+ -t 5.045714286 -s 7 -d 11 -p cbr -e 532 -c 2 -a 0 -i 77 -k RTR 
- -t 5.045714286 -s 7 -d 11 -p cbr -e 532 -c 2 -a 0 -i 77 -k RTR
h -t 5.045714286 -s 7 -d 11 -p cbr -e 532 -c 2 -a 0 -i 77 -k RTR
+ -t 5.046561164 -s 5 -d -1 -p DSR -e 48 -c 2 -a 0 -i 70 -k RTR 
- -t 5.046561164 -s 5 -d -1 -p DSR -e 48 -c 2 -a 0 -i 70 -k RTR
h -t 5.046561164 -s 5 -d -1 -p DSR -e 48 -c 2 -a 0 -i 70 -k RTR
+ -t 5.046735097 -s 2 -d -1 -p DSR -e 48 -c 2 -a 0 -i 70 -k RTR 
- -t 5.046735097 -s 2 -d -1 -p DSR -e 48 -c 2 -a 0 -i 70 -k RTR
h -t 5.046735097 -s 2 -d -1 -p DSR -e 48 -c 2 -a 0 -i 70 -k RTR
+ -t 5.047188634 -s 2 -d -1 -p DSR -e 48 -c 2 -a 0 -i 72 -k RTR 
- -t 5.047188634 -s 2 -d -1 -p DSR -e 48 -c 2 -a 0 -i 72 -k RTR
h -t 5.047188634 -s 2 -d -1 -p DSR -e 48 -c 2 -a 0 -i 72 -k RTR
+ -t 5.047459911 -s 8 -d -1 -p DSR -e 48 -c 2 -a 0 -i 72 -k RTR 
- -t 5.047459911 -s 8 -d -1 -p DSR -e 48 -c 2 -a 0 -i 72 -k RTR
h -t 5.047459911 -s 8 -d -1 -p DSR -e 48 -c 2 -a 0 -i 72 -k RTR
+ -t 5.047826020 -s 11 -d -1 -p DSR -e 48 -c 2 -a 0 -i 70 -k RTR 
- -t 5.047826020 -s 11 -d -1 -p DSR -e 48 -c 2 -a 0 -i 70 -k RTR
h -t 5.047826020 -s 11 -d -1 -p DSR -e 48 -c 2 -a 0 -i 70 -k RTR
+ -t 5.048093347 -s 7 -d 11 -p cbr -e 548 -c 2 -a 0 -i 16 -k RTR 
- -t 5.048093347 -s 7 -d 11 -p cbr -e 548 -c 2 -a 0 -i 16 -k RTR
h -t 5.048093347 -s 7 -d 11 -p cbr -e 548 -c 2 -a 0 -i 16 -k RTR
r -t 5.051212381 -s 11 -d 11 -p cbr -e 512 -c 2 -a 0 -i 77 -k AGT
+ -t 5.051378586 -s 1 -d -1 -p DSR -e 48 -c 2 -a 0 -i 70 -k RTR 
- -t 5.051378586 -s 1 -d -1 -p DSR -e 48 -c 2 -a 0 -i 70 -k RTR
h -t 5.051378586 -s 1 -d -1 -p DSR -e 48 -c 2 -a 0 -i 70 -k RTR
+ -t 5.051436513 -s 12 -d -1 -p DSR -e 48 -c 2 -a 0 -i 74 -k RTR 
- -t 5.051436513 -s 12 -d -1 -p DSR -e 48 -c 2 -a 0 -i 74 -k RTR
h -t 5.051436513 -s 12 -d -1 -p DSR -e 48 -c 2 -a 0 -i 74 -k RTR
+ -t 5.052181787 -s 11 -d -1 -p DSR -e 48 -c 2 -a 0 -i 72 -k RTR 
- -t 5.052181787 -s 11 -d -1 -p DSR -e 48 -c 2 -a 0 -i 72 -k RTR
h -t 5.052181787 -s 11 -d -1 -p DSR -e 48 -c 2 -a 0 -i 72 -k RTR
+ -t 5.052369956 -s 7 -d -1 -p DSR -e 48 -c 2 -a 0 -i 70 -k RTR 
- -t 5.052369956 -s 7 -d -1 -p DSR -e 48 -c 2 -a 0 -i 70 -k RTR
h -t 5.052369956 -s 7 -d -1 -p DSR -e 48 -c 2 -a 0 -i 70 -k RTR
+ -t 5.052971661 -s 7 -d -1 -p DSR -e 48 -c 2 -a 0 -i 72 -k RTR 
- -t 5.052971661 -s 7 -d -1 -p DSR -e 48 -c 2 -a 0 -i 72 -k RTR
h -t 5.052971661 -s 7 -d -1 -p DSR -e 48 -c 2 -a 0 -i 72 -k RTR
+ -t 5.053039629 -s 1 -d -1 -p DSR -e 48 -c 2 -a 0 -i 74 -k RTR 
- -t 5.053039629 -s 1 -d -1 -p DSR -e 48 -c 2 -a 0 -i 74 -k RTR
h -t 5.053039629 -s 1 -d -1 -p DSR -e 48 -c 2 -a 0 -i 74 -k RTR
+ -t 5.053655406 -s 4 -d -1 -p DSR -e 48 -c 2 -a 0 -i 72 -k RTR 
- -t 5.053655406 -s 4 -d -1 -p DSR -e 48 -c 2 -a 0 -i 72 -k RTR
h -t 5.053655406 -s 4 -d -1 -p DSR -e 48 -c 2 -a 0 -i 72 -k RTR
+ -t 5.053837376 -s 7 -d -1 -p DSR -e 48 -c 2 -a 0 -i 74 -k RTR 
- -t 5.053837376 -s 7 -d -1 -p DSR -e 48 -c 2 -a 0 -i 74 -k RTR
h -t 5.053837376 -s 7 -d -1 -p DSR -e 48 -c 2 -a 0 -i 74 -k RTR
+ -t 5.054568163 -s 4 -d -1 -p DSR -e 48 -c 2 -a 0 -i 74 -k RTR 
- -t 5.054568163 -s 4 -d -1 -p DSR -e 48 -c 2 -a 0 -i 74 -k RTR
h -t 5.054568163 -s 4 -d -1 -p DSR -e 48 -c 2 -a 0 -i 74 -k RTR
+ -t 5.054605934 -s 0 -d -1 -p DSR -e 68 -c 2 -a 0 -i 72 -k RTR 
- -t 5.054605934 -s 0 -d -1 -p DSR -e 68 -c 2 -a 0 -i 72 -k RTR
h -t 5.054605934 -s 0 -d -1 -p DSR -e 68 -c 2 -a 0 -i 72 -k RTR
+ -t 5.054857143 -s 7 -d -1 -p cbr -e 512 -c 2 -a 0 -i 121 -k AGT 
- -t 5.054857143 -s 7 -d -1 -p cbr -e 512 -c 2 -a 0 -i 121 -k AGT
h -t 5.054857143 -s 7 -d -1 -p cbr -e 512 -c 2 -a 0 -i 121 -k AGT
+ -t 5.054857143 -s 6 -d -1 -p cbr -e 512 -c 2 -a 0 -i 122 -k AGT 
- -t 5.054857143 -s 6 -d -1 -p cbr -e 512 -c 2 -a 0 -i 122 -k AGT
h -t 5.054857143 -s 6 -d -1 -p cbr -e 512 -c 2 -a 0 -i 122 -k AGT
+ -t 5.054857143 -s 10 -d -1 -p cbr -e 512 -c 2 -a 0 -i 124 -k AGT 
- -t 5.054857143 -s 10 -d -1 -p cbr -e 512 -c 2 -a 0 -i 124 -k AGT
h -t 5.054857143 -s 10 -d -1 -p cbr -e 512 -c 2 -a 0 -i 124 -k AGT
+ -t 5.054857143 -s 4 -d -1 -p cbr -e 512 -c 2 -a 0 -i 126 -k AGT 
- -t 5.054857143 -s 4 -d -1 -p cbr -e 512 -c 2 -a 0 -i 126 -k AGT
h -t 5.054857143 -s 4 -d -1 -p cbr -e 512 -c 2 -a 0 -i 126 -k AGT
+ -t 5.054857143 -s 1 -d -1 -p cbr -e 512 -c 2 -a 0 -i 128 -k AGT 
- -t 5.054857143 -s 1 -d -1 -p cbr -e 512 -c 2 -a 0 -i 128 -k AGT
h -t 5.054857143 -s 1 -d -1 -p cbr -e 512 -c 2 -a 0 -i 128 -k AGT
+ -t 5.054857143 -s 2 -d -1 -p cbr -e 512 -c 2 -a 0 -i 130 -k AGT 
- -t 5.054857143 -s 2 -d -1 -p cbr -e 512 -c 2 -a 0 -i 130 -k AGT
h -t 5.054857143 -s 2 -d -1 -p cbr -e 512 -c 2 -a 0 -i 130 -k AGT
+ -t 5.054857143 -s 9 -d -1 -p cbr -e 512 -c 2 -a 0 -i 132 -k AGT 
- -t 5.054857143 -s 9 -d -1 -p cbr -e 512 -c 2 -a 0 -i 132 -k AGT
h -t 5.054857143 -s 9 -d -1 -p cbr -e 512 -c 2 -a 0 -i 132 -k AGT
+ -t 5.054857143 -s 7 -d 11 -p cbr -e 532 -c 2 -a 0 -i 121 -k RTR 
- -t 5.054857143 -s 7 -d 11 -p cbr -e 532 -c 2 -a 0 -i 121 -k RTR
h -t 5.054857143 -s 7 -d 11 -p cbr -e 532 -c 2 -a 0 -i 121 -k RTR
+ -t 5.055371277 -s 3 -d 2 -p DSR -e 44 -c 2 -a 0 -i 90 -k RTR 
- -t 5.055371277 -s 3 -d 2 -p DSR -e 44 -c 2 -a 0 -i 90 -k RTR
h -t 5.055371277 -s 3 -d 2 -p DSR -e 44 -c 2 -a 0 -i 90 -k RTR
d -t 5.055371277 -s 3 -d 2 -p DSR -e 44 -c 2 -a 0 -i 32 -k IFQ
+ -t 5.057091224 -s 6 -d -1 -p DSR -e 68 -c 2 -a 0 -i 72 -k RTR 
- -t 5.057091224 -s 6 -d -1 -p DSR -e 68 -c 2 -a 0 -i 72 -k RTR
h -t 5.057091224 -s 6 -d -1 -p DSR -e 68 -c 2 -a 0 -i 72 -k RTR
+ -t 5.057135517 -s 5 -d -1 -p DSR -e 68 -c 2 -a 0 -i 72 -k RTR 
- -t 5.057135517 -s 5 -d -1 -p DSR -e 68 -c 2 -a 0 -i 72 -k RTR
h -t 5.057135517 -s 5 -d -1 -p DSR -e 68 -c 2 -a 0 -i 72 -k RTR
+ -t 5.057268297 -s 9 -d -1 -p DSR -e 68 -c 2 -a 0 -i 70 -k RTR 
- -t 5.057268297 -s 9 -d -1 -p DSR -e 68 -c 2 -a 0 -i 70 -k RTR
h -t 5.057268297 -s 9 -d -1 -p DSR -e 68 -c 2 -a 0 -i 70 -k RTR
+ -t 5.057339437 -s 6 -d -1 -p DSR -e 48 -c 2 -a 0 -i 76 -k RTR 
- -t 5.057339437 -s 6 -d -1 -p DSR -e 48 -c 2 -a 0 -i 76 -k RTR
h -t 5.057339437 -s 6 -d -1 -p DSR -e 48 -c 2 -a 0 -i 76 -k RTR
+ -t 5.057812348 -s 9 -d -1 -p DSR -e 68 -c 2 -a 0 -i 72 -k RTR 
- -t 5.057812348 -s 9 -d -1 -p DSR -e 68 -c 2 -a 0 -i 72 -k RTR
h -t 5.057812348 -s 9 -d -1 -p DSR -e 68 -c 2 -a 0 -i 72 -k RTR
+ -t 5.057920974 -s 5 -d -1 -p DSR -e 48 -c 2 -a 0 -i 76 -k RTR 
- -t 5.057920974 -s 5 -d -1 -p DSR -e 48 -c 2 -a 0 -i 76 -k RTR
h -t 5.057920974 -s 5 -d -1 -p DSR -e 48 -c 2 -a 0 -i 76 -k RTR
+ -t 5.058168951 -s 5 -d -1 -p DSR -e 68 -c 2 -a 0 -i 74 -k RTR 
- -t 5.058168951 -s 5 -d -1 -p DSR -e 68 -c 2 -a 0 -i 74 -k RTR
h -t 5.058168951 -s 5 -d -1 -p DSR -e 68 -c 2 -a 0 -i 74 -k RTR
+ -t 5.059506165 -s 12 -d 2 -p DSR -e 52 -c 2 -a 0 -i 134 -k RTR 
- -t 5.059506165 -s 12 -d 2 -p DSR -e 52 -c 2 -a 0 -i 134 -k RTR
h -t 5.059506165 -s 12 -d 2 -p DSR -e 52 -c 2 -a 0 -i 134 -k RTR
+ -t 5.059576631 -s 0 -d -1 -p DSR -e 68 -c 2 -a 0 -i 70 -k RTR 
- -t 5.059576631 -s 0 -d -1 -p DSR -e 68 -c 2 -a 0 -i 70 -k RTR
h -t 5.059576631 -s 0 -d -1 -p DSR -e 68 -c 2 -a 0 -i 70 -k RTR
+ -t 5.061119153 -s 11 -d -1 -p DSR -e 48 -c 2 -a 0 -i 76 -k RTR 
- -t 5.061119153 -s 11 -d -1 -p DSR -e 48 -c 2 -a 0 -i 76 -k RTR
h -t 5.061119153 -s 11 -d -1 -p DSR -e 48 -c 2 -a 0 -i 76 -k RTR
+ -t 5.061320144 -s 10 -d -1 -p DSR -e 48 -c 2 -a 0 -i 76 -k RTR 
- -t 5.061320144 -s 10 -d -1 -p DSR -e 48 -c 2 -a 0 -i 76 -k RTR
h -t 5.061320144 -s 10 -d -1 -p DSR -e 48 -c 2 -a 0 -i 76 -k RTR
+ -t 5.061335736 -s 11 -d -1 -p DSR -e 68 -c 2 -a 0 -i 74 -k RTR 
- -t 5.061335736 -s 11 -d -1 -p DSR -e 68 -c 2 -a 0 -i 74 -k RTR
h -t 5.061335736 -s 11 -d -1 -p DSR -e 68 -c 2 -a 0 -i 74 -k RTR
+ -t 5.061722263 -s 0 -d -1 -p DSR -e 48 -c 2 -a 0 -i 76 -k RTR 
- -t 5.061722263 -s 0 -d -1 -p DSR -e 48 -c 2 -a 0 -i 76 -k RTR
h -t 5.061722263 -s 0 -d -1 -p DSR -e 48 -c 2 -a 0 -i 76 -k RTR
+ -t 5.061939006 -s 6 -d -1 -p DSR -e 68 -c 2 -a 0 -i 70 -k RTR 
- -t 5.061939006 -s 6 -d -1 -p DSR -e 68 -c 2 -a 0 -i 70 -k RTR
h -t 5.061939006 -s 6 -d -1 -p DSR -e 68 -c 2 -a 0 -i 70 -k RTR
+ -t 5.063881507 -s 3 -d -1 -p DSR -e 68 -c 2 -a 0 -i 70 -k RTR 
- -t 5.063881507 -s 3 -d -1 -p DSR -e 68 -c 2 -a 0 -i 70 -k RTR
h -t 5.063881507 -s 3 -d -1 -p DSR -e 68 -c 2 -a 0 -i 70 -k RTR
+ -t 5.064000000 -s 7 -d -1 -p cbr -e 512 -c 2 -a 0 -i 135 -k AGT 
- -t 5.064000000 -s 7 -d -1 -p cbr -e 512 -c 2 -a 0 -i 135 -k AGT
h -t 5.064000000 -s 7 -d -1 -p cbr -e 512 -c 2 -a 0 -i 135 -k AGT
+ -t 5.064000000 -s 6 -d -1 -p cbr -e 512 -c 2 -a 0 -i 136 -k AGT 
- -t 5.064000000 -s 6 -d -1 -p cbr -e 512 -c 2 -a 0 -i 136 -k AGT
h -t 5.064000000 -s 6 -d -1 -p cbr -e 512 -c 2 -a 0 -i 136 -k AGT
+ -t 5.064000000 -s 10 -d -1 -p cbr -e 512 -c 2 -a 0 -i 138 -k AGT 
- -t 5.064000000 -s 10 -d -1 -p cbr -e 512 -c 2 -a 0 -i 138 -k AGT
h -t 5.064000000 -s 10 -d -1 -p cbr -e 512 -c 2 -a 0 -i 138 -k AGT
+ -t 5.064000000 -s 4 -d -1 -p cbr -e 512 -c 2 -a 0 -i 140 -k AGT 
- -t 5.064000000 -s 4 -d -1 -p cbr -e 512 -c 2 -a 0 -i 140 -k AGT
h -t 5.064000000 -s 4 -d -1 -p cbr -e 512 -c 2 -a 0 -i 140 -k AGT
+ -t 5.064000000 -s 1 -d -1 -p cbr -e 512 -c 2 -a 0 -i 142 -k AGT 
- -t 5.064000000 -s 1 -d -1 -p cbr -e 512 -c 2 -a 0 -i 142 -k AGT
h -t 5.064000000 -s 1 -d -1 -p cbr -e 512 -c 2 -a 0 -i 142 -k AGT
+ -t 5.064000000 -s 2 -d -1 -p cbr -e 512 -c 2 -a 0 -i 144 -k AGT 
- -t 5.064000000 -s 2 -d -1 -p cbr -e 512 -c 2 -a 0 -i 144 -k AGT
h -t 5.064000000 -s 2 -d -1 -p cbr -e 512 -c 2 -a 0 -i 144 -k AGT
+ -t 5.064000000 -s 9 -d -1 -p cbr -e 512 -c 2 -a 0 -i 146 -k AGT 
- -t 5.064000000 -s 9 -d -1 -p cbr -e 512 -c 2 -a 0 -i 146 -k AGT
h -t 5.064000000 -s 9 -d -1 -p cbr -e 512 -c 2 -a 0 -i 146 -k AGT
+ -t 5.064000000 -s 7 -d 11 -p cbr -e 532 -c 2 -a 0 -i 135 -k RTR 
- -t 5.064000000 -s 7 -d 11 -p cbr -e 532 -c 2 -a 0 -i 135 -k RTR
h -t 5.064000000 -s 7 -d 11 -p cbr -e 532 -c 2 -a 0 -i 135 -k RTR
+ -t 5.066074502 -s 7 -d -1 -p DSR -e 48 -c 2 -a 0 -i 68 -k RTR 
- -t 5.066074502 -s 7 -d -1 -p DSR -e 48 -c 2 -a 0 -i 68 -k RTR
h -t 5.066074502 -s 7 -d -1 -p DSR -e 48 -c 2 -a 0 -i 68 -k RTR
+ -t 5.066145873 -s 13 -d -1 -p DSR -e 48 -c 2 -a 0 -i 68 -k RTR 
- -t 5.066145873 -s 13 -d -1 -p DSR -e 48 -c 2 -a 0 -i 68 -k RTR
h -t 5.066145873 -s 13 -d -1 -p DSR -e 48 -c 2 -a 0 -i 68 -k RTR
+ -t 5.066523566 -s 8 -d -1 -p DSR -e 68 -c 2 -a 0 -i 74 -k RTR 
- -t 5.066523566 -s 8 -d -1 -p DSR -e 68 -c 2 -a 0 -i 74 -k RTR
h -t 5.066523566 -s 8 -d -1 -p DSR -e 68 -c 2 -a 0 -i 74 -k RTR
+ -t 5.067092196 -s 10 -d -1 -p DSR -e 92 -c 2 -a 0 -i 70 -k RTR 
- -t 5.067092196 -s 10 -d -1 -p DSR -e 92 -c 2 -a 0 -i 70 -k RTR
h -t 5.067092196 -s 10 -d -1 -p DSR -e 92 -c 2 -a 0 -i 70 -k RTR
r -t 5.067774789 -s 11 -d 11 -p cbr -e 512 -c 2 -a 0 -i 16 -k AGT
+ -t 5.068667888 -s 6 -d -1 -p DSR -e 48 -c 2 -a 0 -i 68 -k RTR 
- -t 5.068667888 -s 6 -d -1 -p DSR -e 48 -c 2 -a 0 -i 68 -k RTR
h -t 5.068667888 -s 6 -d -1 -p DSR -e 48 -c 2 -a 0 -i 68 -k RTR
+ -t 5.068974639 -s 3 -d -1 -p DSR -e 48 -c 2 -a 0 -i 68 -k RTR 
- -t 5.068974639 -s 3 -d -1 -p DSR -e 48 -c 2 -a 0 -i 68 -k RTR
h -t 5.068974639 -s 3 -d -1 -p DSR -e 48 -c 2 -a 0 -i 68 -k RTR
+ -t 5.069929775 -s 9 -d -1 -p DSR -e 48 -c 2 -a 0 -i 66 -k RTR 
- -t 5.069929775 -s 9 -d -1 -p DSR -e 48 -c 2 -a 0 -i 66 -k RTR
h -t 5.069929775 -s 9 -d -1 -p DSR -e 48 -c 2 -a 0 -i 66 -k RTR
+ -t 5.071084670 -s 9 -d -1 -p DSR -e 48 -c 2 -a 0 -i 68 -k RTR 
- -t 5.071084670 -s 9 -d -1 -p DSR -e 48 -c 2 -a 0 -i 68 -k RTR
h -t 5.071084670 -s 9 -d -1 -p DSR -e 48 -c 2 -a 0 -i 68 -k RTR
+ -t 5.071145061 -s 3 -d -1 -p DSR -e 68 -c 2 -a 0 -i 76 -k RTR 
- -t 5.071145061 -s 3 -d -1 -p DSR -e 68 -c 2 -a 0 -i 76 -k RTR
h -t 5.071145061 -s 3 -d -1 -p DSR -e 68 -c 2 -a 0 -i 76 -k RTR
+ -t 5.072033718 -s 11 -d -1 -p DSR -e 48 -c 2 -a 0 -i 66 -k RTR 
- -t 5.072033718 -s 11 -d -1 -p DSR -e 48 -c 2 -a 0 -i 66 -k RTR
h -t 5.072033718 -s 11 -d -1 -p DSR -e 48 -c 2 -a 0 -i 66 -k RTR
+ -t 5.072965316 -s 7 -d -1 -p DSR -e 48 -c 2 -a 0 -i 66 -k RTR 
- -t 5.072965316 -s 7 -d -1 -p DSR -e 48 -c 2 -a 0 -i 66 -k RTR
h -t 5.072965316 -s 7 -d -1 -p DSR -e 48 -c 2 -a 0 -i 66 -k RTR
+ -t 5.073021244 -s 13 -d -1 -p DSR -e 68 -c 2 -a 0 -i 76 -k RTR 
- -t 5.073021244 -s 13 -d -1 -p DSR -e 68 -c 2 -a 0 -i 76 -k RTR
h -t 5.073021244 -s 13 -d -1 -p DSR -e 68 -c 2 -a 0 -i 76 -k RTR
+ -t 5.073033733 -s 10 -d -1 -p DSR -e 48 -c 2 -a 0 -i 66 -k RTR 
- -t 5.073033733 -s 10 -d -1 -p DSR -e 48 -c 2 -a 0 -i 66 -k RTR
h -t 5.073033733 -s 10 -d -1 -p DSR -e 48 -c 2 -a 0 -i 66 -k RTR
+ -t 5.073142857 -s 7 -d -1 -p cbr -e 512 -c 2 -a 0 -i 158 -k AGT 
- -t 5.073142857 -s 7 -d -1 -p cbr -e 512 -c 2 -a 0 -i 158 -k AGT
h -t 5.073142857 -s 7 -d -1 -p cbr -e 512 -c 2 -a 0 -i 158 -k AGT
+ -t 5.073142857 -s 6 -d -1 -p cbr -e 512 -c 2 -a 0 -i 159 -k AGT 
- -t 5.073142857 -s 6 -d -1 -p cbr -e 512 -c 2 -a 0 -i 159 -k AGT
h -t 5.073142857 -s 6 -d -1 -p cbr -e 512 -c 2 -a 0 -i 159 -k AGT
+ -t 5.073142857 -s 10 -d -1 -p cbr -e 512 -c 2 -a 0 -i 161 -k AGT 
- -t 5.073142857 -s 10 -d -1 -p cbr -e 512 -c 2 -a 0 -i 161 -k AGT
h -t 5.073142857 -s 10 -d -1 -p cbr -e 512 -c 2 -a 0 -i 161 -k AGT
+ -t 5.073142857 -s 4 -d -1 -p cbr -e 512 -c 2 -a 0 -i 163 -k AGT 
- -t 5.073142857 -s 4 -d -1 -p cbr -e 512 -c 2 -a 0 -i 163 -k AGT
h -t 5.073142857 -s 4 -d -1 -p cbr -e 512 -c 2 -a 0 -i 163 -k AGT
+ -t 5.073142857 -s 1 -d -1 -p cbr -e 512 -c 2 -a 0 -i 165 -k AGT 
- -t 5.073142857 -s 1 -d -1 -p cbr -e 512 -c 2 -a 0 -i 165 -k AGT
h -t 5.073142857 -s 1 -d -1 -p cbr -e 512 -c 2 -a 0 -i 165 -k AGT
+ -t 5.073142857 -s 2 -d -1 -p cbr -e 512 -c 2 -a 0 -i 167 -k AGT 
- -t 5.073142857 -s 2 -d -1 -p cbr -e 512 -c 2 -a 0 -i 167 -k AGT
h -t 5.073142857 -s 2 -d -1 -p cbr -e 512 -c 2 -a 0 -i 167 -k AGT
+ -t 5.073142857 -s 9 -d -1 -p cbr -e 512 -c 2 -a 0 -i 169 -k AGT 
- -t 5.073142857 -s 9 -d -1 -p cbr -e 512 -c 2 -a 0 -i 169 -k AGT
h -t 5.073142857 -s 9 -d -1 -p cbr -e 512 -c 2 -a 0 -i 169 -k AGT
+ -t 5.073142857 -s 7 -d 11 -p cbr -e 532 -c 2 -a 0 -i 158 -k RTR 
- -t 5.073142857 -s 7 -d 11 -p cbr -e 532 -c 2 -a 0 -i 158 -k RTR
h -t 5.073142857 -s 7 -d 11 -p cbr -e 532 -c 2 -a 0 -i 158 -k RTR
+ -t 5.073172471 -s 0 -d 6 -p DSR -e 52 -c 2 -a 0 -i 156 -k RTR 
- -t 5.073172471 -s 0 -d 6 -p DSR -e 52 -c 2 -a 0 -i 156 -k RTR
h -t 5.073172471 -s 0 -d 6 -p DSR -e 52 -c 2 -a 0 -i 156 -k RTR
+ -t 5.075137793 -s 0 -d -1 -p DSR -e 48 -c 2 -a 0 -i 66 -k RTR 
- -t 5.075137793 -s 0 -d -1 -p DSR -e 48 -c 2 -a 0 -i 66 -k RTR
h -t 5.075137793 -s 0 -d -1 -p DSR -e 48 -c 2 -a 0 -i 66 -k RTR
+ -t 5.075442927 -s 11 -d -1 -p DSR -e 68 -c 2 -a 0 -i 68 -k RTR 
- -t 5.075442927 -s 11 -d -1 -p DSR -e 68 -c 2 -a 0 -i 68 -k RTR
h -t 5.075442927 -s 11 -d -1 -p DSR -e 68 -c 2 -a 0 -i 68 -k RTR
+ -t 5.075548956 -s 9 -d -1 -p DSR -e 92 -c 2 -a 0 -i 74 -k RTR 
- -t 5.075548956 -s 9 -d -1 -p DSR -e 92 -c 2 -a 0 -i 74 -k RTR
h -t 5.075548956 -s 9 -d -1 -p DSR -e 92 -c 2 -a 0 -i 74 -k RTR
+ -t 5.077020785 -s 0 -d -1 -p DSR -e 92 -c 2 -a 0 -i 74 -k RTR 
- -t 5.077020785 -s 0 -d -1 -p DSR -e 92 -c 2 -a 0 -i 74 -k RTR
h -t 5.077020785 -s 0 -d -1 -p DSR -e 92 -c 2 -a 0 -i 74 -k RTR
+ -t 5.077067283 -s 13 -d -1 -p DSR -e 48 -c 2 -a 0 -i 66 -k RTR 
- -t 5.077067283 -s 13 -d -1 -p DSR -e 48 -c 2 -a 0 -i 66 -k RTR